<?xml version="1.0"?>
<VTKFile type="UnstructuredGrid"  version="0.1"  >
<UnstructuredGrid>
<Piece  NumberOfPoints="16641" NumberOfCells="32768">
<Points>
<DataArray  type="Float32"  NumberOfComponents="3"  format="ascii">0 0 0  0.0078125 0 0  0.015625 0 0  0.0234375 0 0  0.03125 0 0  0.0390625 0 0  0.046875 0 0  0.0546875 0 0  0.0625 0 0  0.0703125 0 0  0.078125 0 0  0.0859375 0 0  0.09375 0 0  0.101562 0 0  0.109375 0 0  0.117188 0 0  0.125 0 0  0.132812 0 0  0.140625 0 0  0.148438 0 0  0.15625 0 0  0.164062 0 0  0.171875 0 0  0.179688 0 0  0.1875 0 0  0.195312 0 0  0.203125 0 0  0.210938 0 0  0.21875 0 0  0.226562 0 0  0.234375 0 0  0.242188 0 0  0.25 0 0  0.257812 0 0  0.265625 0 0  0.273438 0 0  0.28125 0 0  0.289062 0 0  0.296875 0 0  0.304688 0 0  0.3125 0 0  0.320312 0 0  0.328125 0 0  0.335938 0 0  0.34375 0 0  0.351562 0 0  0.359375 0 0  0.367188 0 0  0.375 0 0  0.382812 0 0  0.390625 0 0  0.398438 0 0  0.40625 0 0  0.414062 0 0  0.421875 0 0  0.429688 0 0  0.4375 0 0  0.445312 0 0  0.453125 0 0  0.460938 0 0  0.46875 0 0  0.476562 0 0  0.484375 0 0  0.492188 0 0  0.5 0 0  0.507812 0 0  0.515625 0 0  0.523438 0 0  0.53125 0 0  0.539062 0 0  0.546875 0 0  0.554688 0 0  0.5625 0 0  0.570312 0 0  0.578125 0 0  0.585938 0 0  0.59375 0 0  0.601562 0 0  0.609375 0 0  0.617188 0 0  0.625 0 0  0.632812 0 0  0.640625 0 0  0.648438 0 0  0.65625 0 0  0.664062 0 0  0.671875 0 0  0.679688 0 0  0.6875 0 0  0.695312 0 0  0.703125 0 0  0.710938 0 0  0.71875 0 0  0.726562 0 0  0.734375 0 0  0.742188 0 0  0.75 0 0  0.757812 0 0  0.765625 0 0  0.773438 0 0  0.78125 0 0  0.789062 0 0  0.796875 0 0  0.804688 0 0  0.8125 0 0  0.820312 0 0  0.828125 0 0  0.835938 0 0  0.84375 0 0  0.851562 0 0  0.859375 0 0  0.867188 0 0  0.875 0 0  0.882812 0 0  0.890625 0 0  0.898438 0 0  0.90625 0 0  0.914062 0 0  0.921875 0 0  0.929688 0 0  0.9375 0 0  0.945312 0 0  0.953125 0 0  0.960938 0 0  0.96875 0 0  0.976562 0 0  0.984375 0 0  0.992188 0 0  1 0 0  0 0.0078125 0  0.0078125 0.0078125 0  0.015625 0.0078125 0  0.0234375 0.0078125 0  0.03125 0.0078125 0  0.0390625 0.0078125 0  0.046875 0.0078125 0  0.0546875 0.0078125 0  0.0625 0.0078125 0  0.0703125 0.0078125 0  0.078125 0.0078125 0  0.0859375 0.0078125 0  0.09375 0.0078125 0  0.101562 0.0078125 0  0.109375 0.0078125 0  0.117188 0.0078125 0  0.125 0.0078125 0  0.132812 0.0078125 0  0.140625 0.0078125 0  0.148438 0.0078125 0  0.15625 0.0078125 0  0.164062 0.0078125 0  0.171875 0.0078125 0  0.179688 0.0078125 0  0.1875 0.0078125 0  0.195312 0.0078125 0  0.203125 0.0078125 0  0.210938 0.0078125 0  0.21875 0.0078125 0  0.226562 0.0078125 0  0.234375 0.0078125 0  0.242188 0.0078125 0  0.25 0.0078125 0  0.257812 0.0078125 0  0.265625 0.0078125 0  0.273438 0.0078125 0  0.28125 0.0078125 0  0.289062 0.0078125 0  0.296875 0.0078125 0  0.304688 0.0078125 0  0.3125 0.0078125 0  0.320312 0.0078125 0  0.328125 0.0078125 0  0.335938 0.0078125 0  0.34375 0.0078125 0  0.351562 0.0078125 0  0.359375 0.0078125 0  0.367188 0.0078125 0  0.375 0.0078125 0  0.382812 0.0078125 0  0.390625 0.0078125 0  0.398438 0.0078125 0  0.40625 0.0078125 0  0.414062 0.0078125 0  0.421875 0.0078125 0  0.429688 0.0078125 0  0.4375 0.0078125 0  0.445312 0.0078125 0  0.453125 0.0078125 0  0.460938 0.0078125 0  0.46875 0.0078125 0  0.476562 0.0078125 0  0.484375 0.0078125 0  0.492188 0.0078125 0  0.5 0.0078125 0  0.507812 0.0078125 0  0.515625 0.0078125 0  0.523438 0.0078125 0  0.53125 0.0078125 0  0.539062 0.0078125 0  0.546875 0.0078125 0  0.554688 0.0078125 0  0.5625 0.0078125 0  0.570312 0.0078125 0  0.578125 0.0078125 0  0.585938 0.0078125 0  0.59375 0.0078125 0  0.601562 0.0078125 0  0.609375 0.0078125 0  0.617188 0.0078125 0  0.625 0.0078125 0  0.632812 0.0078125 0  0.640625 0.0078125 0  0.648438 0.0078125 0  0.65625 0.0078125 0  0.664062 0.0078125 0  0.671875 0.0078125 0  0.679688 0.0078125 0  0.6875 0.0078125 0  0.695312 0.0078125 0  0.703125 0.0078125 0  0.710938 0.0078125 0  0.71875 0.0078125 0  0.726562 0.0078125 0  0.734375 0.0078125 0  0.742188 0.0078125 0  0.75 0.0078125 0  0.757812 0.0078125 0  0.765625 0.0078125 0  0.773438 0.0078125 0  0.78125 0.0078125 0  0.789062 0.0078125 0  0.796875 0.0078125 0  0.804688 0.0078125 0  0.8125 0.0078125 0  0.820312 0.0078125 0  0.828125 0.0078125 0  0.835938 0.0078125 0  0.84375 0.0078125 0  0.851562 0.0078125 0  0.859375 0.0078125 0  0.867188 0.0078125 0  0.875 0.0078125 0  0.882812 0.0078125 0  0.890625 0.0078125 0  0.898438 0.0078125 0  0.90625 0.0078125 0  0.914062 0.0078125 0  0.921875 0.0078125 0  0.929688 0.0078125 0  0.9375 0.0078125 0  0.945312 0.0078125 0  0.953125 0.0078125 0  0.960938 0.0078125 0  0.96875 0.0078125 0  0.976562 0.0078125 0  0.984375 0.0078125 0  0.992188 0.0078125 0  1 0.0078125 0  0 0.015625 0  0.0078125 0.015625 0  0.015625 0.015625 0  0.0234375 0.015625 0  0.03125 0.015625 0  0.0390625 0.015625 0  0.046875 0.015625 0  0.0546875 0.015625 0  0.0625 0.015625 0  0.0703125 0.015625 0  0.078125 0.015625 0  0.0859375 0.015625 0  0.09375 0.015625 0  0.101562 0.015625 0  0.109375 0.015625 0  0.117188 0.015625 0  0.125 0.015625 0  0.132812 0.015625 0  0.140625 0.015625 0  0.148438 0.015625 0  0.15625 0.015625 0  0.164062 0.015625 0  0.171875 0.015625 0  0.179688 0.015625 0  0.1875 0.015625 0  0.195312 0.015625 0  0.203125 0.015625 0  0.210938 0.015625 0  0.21875 0.015625 0  0.226562 0.015625 0  0.234375 0.015625 0  0.242188 0.015625 0  0.25 0.015625 0  0.257812 0.015625 0  0.265625 0.015625 0  0.273438 0.015625 0  0.28125 0.015625 0  0.289062 0.015625 0  0.296875 0.015625 0  0.304688 0.015625 0  0.3125 0.015625 0  0.320312 0.015625 0  0.328125 0.015625 0  0.335938 0.015625 0  0.34375 0.015625 0  0.351562 0.015625 0  0.359375 0.015625 0  0.367188 0.015625 0  0.375 0.015625 0  0.382812 0.015625 0  0.390625 0.015625 0  0.398438 0.015625 0  0.40625 0.015625 0  0.414062 0.015625 0  0.421875 0.015625 0  0.429688 0.015625 0  0.4375 0.015625 0  0.445312 0.015625 0  0.453125 0.015625 0  0.460938 0.015625 0  0.46875 0.015625 0  0.476562 0.015625 0  0.484375 0.015625 0  0.492188 0.015625 0  0.5 0.015625 0  0.507812 0.015625 0  0.515625 0.015625 0  0.523438 0.015625 0  0.53125 0.015625 0  0.539062 0.015625 0  0.546875 0.015625 0  0.554688 0.015625 0  0.5625 0.015625 0  0.570312 0.015625 0  0.578125 0.015625 0  0.585938 0.015625 0  0.59375 0.015625 0  0.601562 0.015625 0  0.609375 0.015625 0  0.617188 0.015625 0  0.625 0.015625 0  0.632812 0.015625 0  0.640625 0.015625 0  0.648438 0.015625 0  0.65625 0.015625 0  0.664062 0.015625 0  0.671875 0.015625 0  0.679688 0.015625 0  0.6875 0.015625 0  0.695312 0.015625 0  0.703125 0.015625 0  0.710938 0.015625 0  0.71875 0.015625 0  0.726562 0.015625 0  0.734375 0.015625 0  0.742188 0.015625 0  0.75 0.015625 0  0.757812 0.015625 0  0.765625 0.015625 0  0.773438 0.015625 0  0.78125 0.015625 0  0.789062 0.015625 0  0.796875 0.015625 0  0.804688 0.015625 0  0.8125 0.015625 0  0.820312 0.015625 0  0.828125 0.015625 0  0.835938 0.015625 0  0.84375 0.015625 0  0.851562 0.015625 0  0.859375 0.015625 0  0.867188 0.015625 0  0.875 0.015625 0  0.882812 0.015625 0  0.890625 0.015625 0  0.898438 0.015625 0  0.90625 0.015625 0  0.914062 0.015625 0  0.921875 0.015625 0  0.929688 0.015625 0  0.9375 0.015625 0  0.945312 0.015625 0  0.953125 0.015625 0  0.960938 0.015625 0  0.96875 0.015625 0  0.976562 0.015625 0  0.984375 0.015625 0  0.992188 0.015625 0  1 0.015625 0  0 0.0234375 0  0.0078125 0.0234375 0  0.015625 0.0234375 0  0.0234375 0.0234375 0  0.03125 0.0234375 0  0.0390625 0.0234375 0  0.046875 0.0234375 0  0.0546875 0.0234375 0  0.0625 0.0234375 0  0.0703125 0.0234375 0  0.078125 0.0234375 0  0.0859375 0.0234375 0  0.09375 0.0234375 0  0.101562 0.0234375 0  0.109375 0.0234375 0  0.117188 0.0234375 0  0.125 0.0234375 0  0.132812 0.0234375 0  0.140625 0.0234375 0  0.148438 0.0234375 0  0.15625 0.0234375 0  0.164062 0.0234375 0  0.171875 0.0234375 0  0.179688 0.0234375 0  0.1875 0.0234375 0  0.195312 0.0234375 0  0.203125 0.0234375 0  0.210938 0.0234375 0  0.21875 0.0234375 0  0.226562 0.0234375 0  0.234375 0.0234375 0  0.242188 0.0234375 0  0.25 0.0234375 0  0.257812 0.0234375 0  0.265625 0.0234375 0  0.273438 0.0234375 0  0.28125 0.0234375 0  0.289062 0.0234375 0  0.296875 0.0234375 0  0.304688 0.0234375 0  0.3125 0.0234375 0  0.320312 0.0234375 0  0.328125 0.0234375 0  0.335938 0.0234375 0  0.34375 0.0234375 0  0.351562 0.0234375 0  0.359375 0.0234375 0  0.367188 0.0234375 0  0.375 0.0234375 0  0.382812 0.0234375 0  0.390625 0.0234375 0  0.398438 0.0234375 0  0.40625 0.0234375 0  0.414062 0.0234375 0  0.421875 0.0234375 0  0.429688 0.0234375 0  0.4375 0.0234375 0  0.445312 0.0234375 0  0.453125 0.0234375 0  0.460938 0.0234375 0  0.46875 0.0234375 0  0.476562 0.0234375 0  0.484375 0.0234375 0  0.492188 0.0234375 0  0.5 0.0234375 0  0.507812 0.0234375 0  0.515625 0.0234375 0  0.523438 0.0234375 0  0.53125 0.0234375 0  0.539062 0.0234375 0  0.546875 0.0234375 0  0.554688 0.0234375 0  0.5625 0.0234375 0  0.570312 0.0234375 0  0.578125 0.0234375 0  0.585938 0.0234375 0  0.59375 0.0234375 0  0.601562 0.0234375 0  0.609375 0.0234375 0  0.617188 0.0234375 0  0.625 0.0234375 0  0.632812 0.0234375 0  0.640625 0.0234375 0  0.648438 0.0234375 0  0.65625 0.0234375 0  0.664062 0.0234375 0  0.671875 0.0234375 0  0.679688 0.0234375 0  0.6875 0.0234375 0  0.695312 0.0234375 0  0.703125 0.0234375 0  0.710938 0.0234375 0  0.71875 0.0234375 0  0.726562 0.0234375 0  0.734375 0.0234375 0  0.742188 0.0234375 0  0.75 0.0234375 0  0.757812 0.0234375 0  0.765625 0.0234375 0  0.773438 0.0234375 0  0.78125 0.0234375 0  0.789062 0.0234375 0  0.796875 0.0234375 0  0.804688 0.0234375 0  0.8125 0.0234375 0  0.820312 0.0234375 0  0.828125 0.0234375 0  0.835938 0.0234375 0  0.84375 0.0234375 0  0.851562 0.0234375 0  0.859375 0.0234375 0  0.867188 0.0234375 0  0.875 0.0234375 0  0.882812 0.0234375 0  0.890625 0.0234375 0  0.898438 0.0234375 0  0.90625 0.0234375 0  0.914062 0.0234375 0  0.921875 0.0234375 0  0.929688 0.0234375 0  0.9375 0.0234375 0  0.945312 0.0234
[...]
<PointData  Vectors="u"> 
<DataArray  type="Float32"  Name="u"  NumberOfComponents="3" format="ascii">0.000000e+00 0.000000e+00 0.000000e+00  0.000000e+00 0.000000e+00 0.000000e+00  0.000000e+00 0.000000e+00 0.000000e+00  0.000000e+00 0.000000e+00 0.000000e+00  0.000000e+00 0.000000e+00 0.000000e+00  0.000000e+00 0.000000e+00 0.000000e+00  0.000000e+00 0.000000e+00 0.000000e+00  0.000000e+00 0.000000e+00 0.000000e+00  0.000000e+00 0.000000e+00 0.000000e+00  0.000000e+00 0.000000e+00 0.000000e+00  0.000000e+00 0.000000e+00 0.000000e+00  0.000000e+00 0.000000e+00 0.000000e+00  0.000000e+00 0.000000e+00 0.000000e+00  0.000000e+00 0.000000e+00 0.000000e+00  0.000000e+00 0.000000e+00 0.000000e+00  0.000000e+00 0.000000e+00 0.000000e+00  0.000000e+00 0.000000e+00 0.000000e+00  0.000000e+00 0.000000e+00 0.000000e+00  0.000000e+00 0.000000e+00 0.000000e+00  0.000000e+00 0.000000e+00 0.000000e+00  0.000000e+00 0.000000e+00 0.000000e+00  0.000000e+00 0.000000e+00 0.000000e+00  0.000000e+00 0.000000e+00 0.000000e+00  0.000000e+00 0.000000e+00 0.000000e+00  0.000000e+00 0.000000e+00 0.000000e+00  0.000000e+00 0.000000e+00 0.000000e+00  0.000000e+00 0.000000e+00 0.000000e+00  0.000000e+00 0.000000e+00 0.000000e+00  0.000000e+00 0.000000e+00 0.000000e+00  0.000000e+00 0.000000e+00 0.000000e+00  0.000000e+00 0.000000e+00 0.000000e+00  0.000000e+00 0.000000e+00 0.000000e+00  0.000000e+00 0.000000e+00 0.000000e+00  0.000000e+00 0.000000e+00 0.000000e+00  0.000000e+00 0.000000e+00 0.000000e+00  0.000000e+00 0.000000e+00 0.000000e+00  0.000000e+00 0.000000e+00 0.000000e+00  0.000000e+00 0.000000e+00 0.000000e+00  0.000000e+00 0.000000e+00 0.000000e+00  0.000000e+00 0.000000e+00 0.000000e+00  0.000000e+00 0.000000e+00 0.000000e+00  0.000000e+00 0.000000e+00 0.000000e+00  0.000000e+00 0.000000e+00 0.000000e+00  0.000000e+00 0.000000e+00 0.000000e+00  0.000000e+00 0.000000e+00 0.000000e+00  0.000000e+00 0.000000e+00 0.000000e+00  0.000000e+00 0.000000e+00 0.000000e+00  0.000000e+00 0.000000e+00 0.000000e+00  0.000000e+00 0.000000e+00 0.000000e+00  0.000000e+00 0.000000e+00 0.000000e+00  0.000000e+00 0.000000e+00 0.000000e+00  0.000000e+00 0.000000e+00 0.000000e+00  0.000000e+00 0.000000e+00 0.000000e+00  0.000000e+00 0.000000e+00 0.000000e+00  0.000000e+00 0.000000e+00 0.000000e+00  0.000000e+00 0.000000e+00 0.000000e+00  0.000000e+00 0.000000e+00 0.000000e+00  0.000000e+00 0.000000e+00 0.000000e+00  0.000000e+00 0.000000e+00 0.000000e+00  0.000000e+00 0.000000e+00 0.000000e+00  0.000000e+00 0.000000e+00 0.000000e+00  0.000000e+00 0.000000e+00 0.000000e+00  0.000000e+00 0.000000e+00 0.000000e+00  0.000000e+00 0.000000e+00 0.000000e+00  0.000000e+00 0.000000e+00 0.000000e+00  0.000000e+00 0.000000e+00 0.000000e+00  0.000000e+00 0.000000e+00 0.000000e+00  0.000000e+00 0.000000e+00 0.000000e+00  0.000000e+00 0.000000e+00 0.000000e+00  0.000000e+00 0.000000e+00 0.000000e+00  0.000000e+00 0.000000e+00 0.000000e+00  0.000000e+00 0.000000e+00 0.000000e+00  0.000000e+00 0.000000e+00 0.000000e+00  0.000000e+00 0.000000e+00 0.000000e+00  0.000000e+00 0.000000e+00 0.000000e+00  0.000000e+00 0.000000e+00 0.000000e+00  0.000000e+00 0.000000e+00 0.000000e+00  0.000000e+00 0.000000e+00 0.000000e+00  0.000000e+00 0.000000e+00 0.000000e+00  0.000000e+00 0.000000e+00 0.000000e+00  0.000000e+00 0.000000e+00 0.000000e+00  0.000000e+00 0.000000e+00 0.000000e+00  0.000000e+00 0.000000e+00 0.000000e+00  0.000000e+00 0.000000e+00 0.000000e+00  0.000000e+00 0.000000e+00 0.000000e+00  0.000000e+00 0.000000e+00 0.000000e+00  0.000000e+00 0.000000e+00 0.000000e+00  0.000000e+00 0.000000e+00 0.000000e+00  0.000000e+00 0.000000e+00 0.000000e+00  0.000000e+00 0.000000e+00 0.000000e+00  0.000000e+00 0.000000e+00 0.000000e+00  0.000000e+00 0.000000e+00 0.000000e+00  0.000000e+00 0.000000e+00 0.000000e+00  0.000000e+00 0.000000e+00 0.000000e+00  0.000000e+00 0.000000e+00 0.000000e+00  0.000000e+00 0.000000e+00 0.000000e+00  0.000000e+00 0.000000e+00 0.000000e+00  0.000000e+00 0.000000e+00 0.000000e+00  0.000000e+00 0.000000e+00 0.000000e+00  0.000000e+00 0.000000e+00 0.000000e+00  0.000000e+00 0.000000e+00 0.000000e+00  0.000000e+00 0.000000e+00 0.000000e+00  0.000000e+00 0.000000e+00 0.000000e+00  0.000000e+00 0.000000e+00 0.000000e+00  0.000000e+00 0.000000e+00 0.000000e+00  0.000000e+00 0.000000e+00 0.000000e+00  0.000000e+00 0.000000e+00 0.000000e+00  0.000000e+00 0.000000e+00 0.000000e+00  0.000000e+00 0.000000e+00 0.000000e+00  0.000000e+00 0.000000e+00 0.000000e+00  0.000000e+00 0.000000e+00 0.000000e+00  0.000000e+00 0.000000e+00 0.000000e+00  0.000000e+00 0.000000e+00 0.000000e+00  0.000000e+00 0.000000e+00 0.000000e+00  0.000000e+00 0.000000e+00 0.000000e+00  0.000000e+00 0.000000e+00 0.000000e+00  0.000000e+00 0.000000e+00 0.000000e+00  0.000000e+00 0.000000e+00 0.000000e+00  0.000000e+00 0.000000e+00 0.000000e+00  0.000000e+00 0.000000e+00 0.000000e+00  0.000000e+00 0.000000e+00 0.000000e+00  0.000000e+00 0.000000e+00 0.000000e+00  0.000000e+00 0.000000e+00 0.000000e+00  0.000000e+00 0.000000e+00 0.000000e+00  0.000000e+00 0.000000e+00 0.000000e+00  0.000000e+00 0.000000e+00 0.000000e+00  0.000000e+00 0.000000e+00 0.000000e+00  0.000000e+00 0.000000e+00 0.000000e+00  0.000000e+00 0.000000e+00 0.000000e+00  0.000000e+00 0.000000e+00 0.000000e+00  -4.450737e-07 4.319499e-07 0.000000e+00  2.102641e-05 -1.803475e-05 0.000000e+00  8.050288e-05 -3.964153e-05 0.000000e+00  1.784495e-04 -5.934255e-05 0.000000e+00  3.102129e-04 -7.568931e-05 0.000000e+00  4.694427e-04 -8.838985e-05 0.000000e+00  6.495202e-04 -9.759300e-05 0.000000e+00  8.441682e-04 -1.036048e-04 0.000000e+00  1.047682e-03 -1.067875e-04 0.000000e+00  1.255027e-03 -1.075200e-04 0.000000e+00  1.461866e-03 -1.061809e-04 0.000000e+00  1.664566e-03 -1.031392e-04 0.000000e+00  1.860162e-03 -9.874933e-05 0.000000e+00  2.046398e-03 -9.334457e-05 0.000000e+00  2.221568e-03 -8.723593e-05 0.000000e+00  2.384543e-03 -8.070755e-05 0.000000e+00  2.534752e-03 -7.401202e-05 0.000000e+00  2.672077e-03 -6.737008e-05 0.000000e+00  2.796761e-03 -6.097154e-05 0.000000e+00  2.909386e-03 -5.497333e-05 0.000000e+00  3.010840e-03 -4.949873e-05 0.000000e+00  3.102217e-03 -4.464088e-05 0.000000e+00  3.184744e-03 -4.046605e-05 0.000000e+00  3.259759e-03 -3.701463e-05 0.000000e+00  3.328679e-03 -3.430356e-05 0.000000e+00  3.392935e-03 -3.233097e-05 0.000000e+00  3.453929e-03 -3.107978e-05 0.000000e+00  3.513021e-03 -3.052002e-05 0.000000e+00  3.571520e-03 -3.061217e-05 0.000000e+00  3.630660e-03 -3.131065e-05 0.000000e+00  3.691566e-03 -3.256600e-05 0.000000e+00  3.755268e-03 -3.432694e-05 0.000000e+00  3.822716e-03 -3.654290e-05 0.000000e+00  3.894767e-03 -3.916540e-05 0.000000e+00  3.972168e-03 -4.214809e-05 0.000000e+00  4.055580e-03 -4.544789e-05 0.000000e+00  4.145603e-03 -4.902616e-05 0.000000e+00  4.242772e-03 -5.284806e-05 0.000000e+00  4.347531e-03 -5.688100e-05 0.000000e+00  4.460260e-03 -6.109482e-05 0.000000e+00  4.581311e-03 -6.546224e-05 0.000000e+00  4.710989e-03 -6.995705e-05 0.000000e+00  4.849511e-03 -7.455183e-05 0.000000e+00  4.997040e-03 -7.921811e-05 0.000000e+00  5.153717e-03 -8.392673e-05 0.000000e+00  5.319627e-03 -8.864596e-05 0.000000e+00  5.494749e-03 -9.333954e-05 0.000000e+00  5.678984e-03 -9.796736e-05 0.000000e+00  5.872198e-03 -1.024864e-04 0.000000e+00  6.074173e-03 -1.068494e-04 0.000000e+00  6.284544e-03 -1.110038e-04 0.000000e+00  6.502838e-03 -1.148933e-04 0.000000e+00  6.728524e-03 -1.184592e-04 0.000000e+00  6.960960e-03 -1.216402e-04 0.000000e+00  7.199323e-03 -1.243722e-04 0.000000e+00  7.442662e-03 -1.265904e-04 0.000000e+00  7.689966e-03 -1.282311e-04 0.000000e+00  7.940100e-03 -1.292319e-04 0.000000e+00  8.191749e-03 -1.295330e-04 0.000000e+00  8.443485e-03 -1.290789e-04 0.000000e+00  8.693840e-03 -1.278200e-04 0.000000e+00  8.941255e-03 -1.257128e-04 0.000000e+00  9.184032e-03 -1.227228e-04 0.000000e+00  9.420413e-03 -1.188249e-04 0.000000e+00  9.648659e-03 -1.140037e-04 0.000000e+00  9.867008e-03 -1.082541e-04 0.000000e+00  1.007364e-02 -1.015844e-04 0.000000e+00  1.026676e-02 -9.401559e-05 0.000000e+00  1.044467e-02 -8.557893e-05 0.000000e+00  1.060575e-02 -7.631764e-05 0.000000e+00  1.074841e-02 -6.628903e-05 0.000000e+00  1.087119e-02 -5.556212e-05 0.000000e+00  1.097281e-02 -4.421363e-05 0.000000e+00  1.105213e-02 -3.232922e-05 0.000000e+00  1.110814e-02 -2.000553e-05 0.000000e+00  1.114007e-02 -7.345952e-06 0.000000e+00  1.114732e-02 5.544473e-06 0.000000e+00  1.112950e-02 1.855778e-05 0.000000e+00  1.108644e-02 3.158133e-05 0.000000e+00  1.101819e-02 4.450284e-05 0.000000e+00  1.092500e-02 5.721565e-05 0.000000e+00  1.080729e-02 6.961700e-05 0.000000e+00  1.066574e-02 8.160641e-05 0.000000e+00  1.050122e-02 9.309046e-05 0.000000e+00  1.031471e-02 1.039870e-04 0.000000e+00  1.010736e-02 1.142228e-04 0.000000e+00  9.880504e-03 1.237323e-04 0.000000e+00  9.635600e-03 1.324606e-04 0.000000e+00  9.374146e-03 1.403665e-04 0.000000e+00  9.097707e-03 1.474197e-04 0.000000e+00  8.807973e-03 1.535991e-04 0.000000e+00  8.506673e-03 1.588950e-04 0.000000e+00  8.195475e-03 1.633098e-04 0.000000e+00  7.876034e-03 1.668557e-04 0.000000e+00  7.550057e-03 1.695530e-04 0.000000e+00  7.219213e-03 1.714311e-04 0.000000e+00  6.885026e-03 1.725277e-04 0.000000e+00  6.548942e-03 1.728870e-04 0.000000e+00  6.212406e-03 1.725589e-04 0.000000e+00  5.876765e-03 1.715984e-04 0.000000e+00  5.543173e-03 1.700641e-04 0.000000e+00  5.212670e-03 1.680171e-04 0.000000e+00  4.886263e-03 1.655204e-04 0.000000e+00  4.564839e-03 1.626370e-04 0.000000e+00  4.249081e-03 1.594279e-04 0.000000e+00  3.939562e-03 1.559506e-04 0.000000e+00  3.636829e-03 1.522581e-04 0.000000e+00  3.341331e-03 1.483957e-04 0.000000e+00  3.053366e-03 1.443973e-04 0.000000e+00  2.773182e-03 1.402832e-04 0.000000e+00  2.501076e-03 1.360580e-04 0.000000e+00  2.237353e-03 1.317063e-04 0.000000e+00  1.982300e-03 1.271875e-04 0.000000e+00  1.736314e-03 1.224340e-04 0.000000e+00  1.500008e-03 1.173493e-04 0.000000e+00  1.274205e-03 1.118051e-04 0.000000e+00  1.059939e-03 1.056389e-04 0.000000e+00  8.585809e-04 9.865811e-05 0.000000e+00  6.719306e-04 9.064689e-05 0.000000e+00  5.021848e-04 8.137851e-05 0.000000e+00  3.518882e-04 7.063617e-05 0.000000e+00  2.239148e-04 5.825818e-05 0.000000e+00  1.212994e-04 4.422277e-05 0.000000e+00  4.678423e-05 2.880547e-05 0.000000e+00  1.979750e-06 1.289877e-05 0.000000e+00  -1.422530e-05 -1.279403e-06 0.000000e+00  -8.597590e-06 -8.596651e-06 0.000000e+00  0.000000e+00 0.000000e+00 0.000000e+00  0.000000e+00 0.000000e+00 0.000000e+00  1.790389e-05 -2.095972e-05 0.000000e+00  8.516384e-05 -8.541424e-05 0.000000e+00  2.137938e-04 -1.589857e-04 0.000000e+00  4.036282e-04 -2.274238e-04 0.000000e+00  6.484597e-04 -2.852851e-04 0.000000e+00  9.389755e-04 -3.309635e-04 0.000000e+00  1.264882e-03 -3.645185e-04 0.000000e+00  1.615968e-03 -3.867417e-04 0.000000e+00  1.982662e-03 -3.987525e-04 0.000000e+00  2.356327e-03 -4.018117e-04 0.000000e+00  2.729404e-03 -3.972291e-04 0.000000e+00  3.095464e-03 -3.863124e-04 0.000000e+00  3.449202e-03 -3.703355e-04 0.000000e+00  3.786515e-03 -3.505089e-04 0.000000e+00  4.104254e-03 -3.279706e-04 0.000000e+00  4.400273e-03 -3.037669e-04 0.000000e+00  4.673417e-03 -2.788331e-04 0.000000e+00  4.923334e-03 -2.539915e-04 0.000000e+00  5.150317e-03 -2.299535e-04 0.000000e+00  5.355279e-03 -2.073119e-04 0.000000e+00  5.539690e-03 -1.865369e-04 0.000000e+00  5.705408e-03 -1.679885e-04 0.000000e+00  5.854545e-03 -1.519279e-04 0.000000e+00  5.989432e-03 -1.385208e-04 0.000000e+00  6.112562e-03 -1.278454e-04 0.000000e+00  6.226477e-03 -1.199094e-04 0.000000e+00  6.333682e-03 -1.146634e-04 0.000000e+00  6.436628e-03 -1.120086e-04 0.000000e+00  6.537695e-03 -1.118094e-04 0.000000e+00  6.639134e-03 -1.139059e-04 0.000000e+00  6.743023e-03 -1.181226e-04 0.000000e+00  6.851281e-03 -1.242755e-04 0.000000e+00  6.965688e-03 -1.321819e-04 0.000000e+00  7.087865e-03 -1.416651e-04 0.000000e+00  7.219246e-03 -1.525554e-04 0.000000e+00  7.361110e-03 -1.646939e-04 0.000000e+00  7.514635e-03 -1.779375e-04 0.000000e+00  7.680873e-03 -1.921560e-04 0.000000e+00  7.860721e-03 -2.072270e-04 0.000000e+00  8.054962e-03 -2.230366e-04 0.000000e+00  8.264320e-03 -2.394813e-04 0.000000e+00  8.489433e-03 -2.564611e-04 0.000000e+00  8.730786e-03 -2.738715e-04 0.000000e+00  8.988756e-03 -2.916039e-04 0.000000e+00  9.263681e-03 -3.095476e-04 0.000000e+00  9.555797e-03 -3.275822e-04 0.000000e+00  9.865145e-03 -3.455704e-04 0.000000e+00  1.019163e-02 -3.633611e-04 0.000000e+00  1.053507e-02 -3.807929e-04 0.000000e+00  1.089517e-02 -3.976885e-04 0.000000e+00  1.127133e-02 -4.138511e-04 0.000000e+00  1.166278e-02 -4.290702e-04 0.000000e+00  1.206863e-02 -4.431270e-04 0.000000e+00  1.248781e-02 -4.557921e-04 0.000000e+00  1.291891e-02 -4.668260e-04 0.000000e+00  1.336028e-02 -4.759864e-04 0.000000e+00  1.381018e-02 -4.830347e-04 0.000000e+00  1.426663e-02 -4.877366e-04 0.000000e+00  1.472733e-02 -4.898660e-04 0.000000e+00  1.518978e-02 -4.892128e-04 0.000000e+00  1.565138e-02 -4.855871e-04 0.000000e+00  1.610939e-02 -4.788217e-04 0.000000e+00  1.656078e-02 -4.687799e-04 0.000000e+00  1.700240e-02 -4.553598e-04 0.000000e+00  1.743115e-02 -4.384934e-04 0.000000e+00  1.784385e-02 -4.181510e-04 0.000000e+00  1.823720e-02 -3.943504e-04 0.000000e+00  1.860793e-02 -3.671550e-04 0.000000e+00  1.895293e-02 -3.366670e-04 0.000000e+00  1.926916e-02 -3.030316e-04 0.000000e+00  1.955368e-02 -2.664463e-04 0.000000e+00  1.980371e-02 -2.271518e-04 0.000000e+00  2.001678e-02 -1.854184e-04 0.000000e+00  2.019066e-02 -1.415505e-04 0.000000e+00  2.032333e-02 -9.589434e-05 0.000000e+00  2.041314e-02 -4.882306e-05 0.000000e+00  2.045878e-02 -7.178701e-07 0.000000e+00  2.045931e-02 4.802651e-05 0.000000e+00  2.041412e-02 9.699523e-05 0.000000e+00  2.032300e-02 1.457722e-04 0.000000e+00  2.018614e-02 1.939591e-04 0.000000e+00  2.000402e-02 2.411690e-04 0.000000e+00  1.977758e-02 2.870202e-04 0.000000e+00  1.950809e-02 3.311545e-04 0.000000e+00  1.919710e-02 3.732532e-04 0.000000e+00  1.884645e-02 4.130285e-04 0.000000e+00  1.845830e-02 4.502176e-04 0.000000e+00  1.803511e-02 4.845972e-04 0.000000e+00  1.757943e-02 5.159933e-04 0.000000e+00  1.709395e-02 5.442714e-04 0.000000e+00  1.658161e-02 5.693309e-04 0.000000e+00  1.604547e-02 5.911139e-04 0.000000e+00  1.548852e-02 6.096084e-04 0.000000e+00  1.491373e-02 6.248388e-04 0.000000e+00  1.432422e-02 6.368615e-04 0.000000e+00  1.372305e-02 6.457680e-04 0.000000e+00  1.311305e-02 6.516828e-04 0.000000e+00  1.249696e-02 6.547561e-04 0.000000e+00  1.187750e-02 6.551609e-04 0.000000e+00  1.125726e-02 6.530910e-04 0.000000e+00  1.063849e-02 6.487561e-04 0.000000e+00  1.002324e-02 6.423760e-04 0.000000e+00  9.413526e-03 6.341785e-04 0.000000e+00  8.811160e-03 6.243936e-04 0.000000e+00  8.217584e-03 6.132438e-04 0.000000e+00  7.634049e-03 6.009394e-04 0.000000e+00  7.061774e-03 5.876740e-04 0.000000e+00  6.501807e-03 5.736129e-04 0.000000e+00  5.954921e-03 5.588795e-04 0.000000e+00  5.421804e-03 5.435471e-04 0.000000e+00  4.903240e-03 5.276316e-04 0.000000e+00  4.400025e-03 5.110754e-04 0.000000e+00  3.912917e-03 4.937312e-04 0.000000e+00  3.442855e-03 4.753549e-04 0.000000e+00  2.991158e-03 4.556019e-04 0.000000e+00  2.559491e-03 4.340188e-04 0.000000e+00  2.149845e-03 4.100400e-04 0.000000e+00  1.764744e-03 3.830048e-04 0.000000e+00  1.407390e-03 3.521937e-04 0.000000e+00  1.081556e-03 3.168797e-04 0.000000e+00  7.914490e-04 2.764150e-04 0.000000e+00  5.416268e-04 2.304047e-04 0.000000e+00  3.366661e-04 1.790123e-04 0.000000e+00  1.803641e-04 1.234702e-04 0.000000e+00  7.449134e-05 6.700323e-05 0.000000e+00  1.696375e-05 1.658073e-05 0.000000e+00  -1.138658e-06 -1.413037e-05 0.000000e+00  0.000000e+00 0.000000e+00 0.000000e+00  0.000000e+00 0.000000e+00 0.000000e+00  3.928980e-05 -8.006829e-05 0.000000e+00  1.581402e-04 -2.138535e-04 0.000000e+00  3.577410e-04 -3.587588e-04 0.000000e+00  6.339002e-04 -4.935779e-04 0.000000e+00  9.782486e-04 -6.086774e-04 0.000000e+00  1.379522e-03 -7.004884e-04 0.000000e+00  1.825236e-03 -7.685464e-04 0.000000e+00  2.302757e-03 -8.139792e-04 0.000000e+00  2.800014e-03 -8.387313e-04 0.000000e+00  3.305936e-03 -8.451578e-04 0.000000e+00  3.810698e-03 -8.358019e-04 0.000000e+00  4.305848e-03 -8.132624e-04 0.000000e+00  4.784335e-03 -7.801088e-04 0.000000e+00  5.240647e-03 -7.388078e-04 0.000000e+00  5.670492e-03 -6.916958e-04 0.000000e+00  6.070894e-03 -6.409346e-04 0.000000e+00  6.440178e-03 -5.884673e-04 0.000000e+00  6.777737e-03 -5.360110e-04 0.000000e+00  7.083828e-03 -4.850602e-04 0.000000e+00  7.359542e-03 -4.368684e-04 0.000000e+00  7.606729e-03 -3.924382e-04 0.000000e+00  7.827774e-03 -3.525456e-04 0.000000e+00  8.025425e-03 -3.177635e-04 0.000000e+00  8.202743e-03 -2.884658e-04 0.000000e+00  8.363030e-03 -2.648441e-04 0.000000e+00  8.509674e-03 -2.469418e-04 0.000000e+00  8.646040e-03 -2.346817e-04 0.000000e+00  8.775440e-03 -2.278817e-04 0.000000e+00  8.901112e-03 -2.262800e-04 0.000000e+00  9.026137e-03 -2.295618e-04 0.000000e+00  9.153385e-03 -2.373767e-04 0.000000e+00  9.285528e-03 -2.493544e-04 0.000000e+00  9.425058e-03 -2.651240e-04 0.000000e+00  9.574269e-03 -2.843253e-04 0.000000e+00  9.735210e-03 -3.066101e-04 0.000000e+00  9.909738e-03 -3.316509e-04 0.000000e+00  1.009957e-02 -3.591512e-04 0.000000e+00  1.030625e-02 -3.888399e-04 0.000000e+00  1.053114e-02 -4.204607e-04 0.000000e+00  1.077544e-02 -4.537744e-04 0.000000e+00  1.104027e-02 -4.885623e-04 0.000000e+00  1.132663e-02 -5.246124e-04 0.000000e+00  1.163531e-02 -5.617028e-04 0.000000e+00  1.196698e-02 -5.996028e-04 0.000000e+00  1.232222e-02 -6.380771e-04 0.000000e+00  1.270151e-02 -6.768705e-04 0.000000e+00  1.310502e-02 -7.156923e-04 0.000000e+00  1.353278e-02 -7.542233e-04 0.000000e+00  1.398470e-02 -7.921228e-04 0.000000e+00  1.446047e-02 -8.290176e-04 0.000000e+00  1.495946e-02 -8.644934e-04 0.000000e+00  1.548076e-02 -8.981073e-04 0.000000e+00  1.602330e-02 -9.293993e-04 0.000000e+00  1.658577e-02 -9.578871e-04 0.000000e+00  1.716639e-02 -9.830660e-04 0.000000e+00  1.776308e-02 -1.004425e-03 0.000000e+00  1.837362e-02 -1.021461e-03 0.000000e+00  1.899546e-02 -1.033676e-03 0.000000e+00  1.962561e-02 -1.040589e-03 0.000000e+00  2.026080e-02 -1.041751e-03 0.000000e+00  2.089762e-02 -1.036752e-03 0.000000e+00  2.153246e-02 -1.025226e-03 0.000000e+00  2.216129e-02 -1.006870e-03 0.000000e+00  2.277992e-02 -9.814496e-04 0.000000e+00  2.338418e-02 -9.487983e-04 0.000000e+00  2.396978e-02 -9.088281e-04 0.000000e+00  2.453223e-02 -8.615462e-04 0.000000e+00  2.506706e-02 -8.070535e-04 0.000000e+00  2.556996e-02 -7.455304e-04 0.000000e+00  2.603675e-02 -6.772461e-04 0.000000e+00  2.646323e-02 -6.025776e-04 0.000000e+00  2.684548e-02 -5.219933e-04 0.000000e+00  2.717990e-02 -4.360239e-04 0.000000e+00  2.746320e-02 -3.452736e-04 0.000000e+00  2.769237e-02 -2.504368e-04 0.000000e+00  2.786480e-02 -1.522673e-04 0.000000e+00  2.797837e-02 -5.154064e-05 0.000000e+00  2.803140e-02 5.093437e-05 0.000000e+00  2.802264e-02 1.543011e-04 0.000000e+00  2.795140e-02 2.576936e-04 0.000000e+00  2.781746e-02 3.602773e-04 0.000000e+00  2.762109e-02 4.612345e-04 0.000000e+00  2.736307e-02 5.597510e-04 0.000000e+00  2.704472e-02 6.550554e-04 0.000000e+00  2.666775e-02 7.464533e-04 0.000000e+00  2.623424e-02 8.333097e-04 0.000000e+00  2.574680e-02 9.150361e-04 0.000000e+00  2.520843e-02 9.911223e-04 0.000000e+00  2.462231e-02 1.061159e-03 0.000000e+00  2.399186e-02 1.124818e-03 0.000000e+00  2.332089e-02 1.181840e-03 0.000000e+00  2.261341e-02 1.232052e-03 0.000000e+00  2.187335e-02 1.275384e-03 0.000000e+00  2.110474e-02 1.311839e-03 0.000000e+00  2.031178e-02 1.341491e-03 0.000000e+00  1.949869e-02 1.364489e-03 0.000000e+00  1.866940e-02 1.381057e-03 0.000000e+00  1.782774e-02 1.391475e-03 0.000000e+00  1.697757e-02 1.396076e-03 0.000000e+00  1.612261e-02 1.395238e-03 0.000000e+00  1.526613e-02 1.389379e-03 0.000000e+00  1.441116e-02 1.378941e-03 0.000000e+00  1.356072e-02 1.364384e-03 0.000000e+00  1.271755e-02 1.346178e