<?xml version="1.0"?>
<VTKFile type="UnstructuredGrid"  version="0.1"  >
<UnstructuredGrid>
<Piece  NumberOfPoints="441" NumberOfCells="800">
<Points>
<DataArray  type="Float32"  NumberOfComponents="3"  format="ascii">0 0 0  0.05 0 0  0.1 0 0  0.15 0 0  0.2 0 0  0.25 0 0  0.3 0 0  0.35 0 0  0.4 0 0  0.45 0 0  0.5 0 0  0.55 0 0  0.6 0 0  0.65 0 0  0.7 0 0  0.75 0 0  0.8 0 0  0.85 0 0  0.9 0 0  0.95 0 0  1 0 0  0 0.05 0  0.05 0.05 0  0.1 0.05 0  0.15 0.05 0  0.2 0.05 0  0.25 0.05 0  0.3 0.05 0  0.35 0.05 0  0.4 0.05 0  0.45 0.05 0  0.5 0.05 0  0.55 0.05 0  0.6 0.05 0  0.65 0.05 0  0.7 0.05 0  0.75 0.05 0  0.8 0.05 0  0.85 0.05 0  0.9 0.05 0  0.95 0.05 0  1 0.05 0  0 0.1 0  0.05 0.1 0  0.1 0.1 0  0.15 0.1 0  0.2 0.1 0  0.25 0.1 0  0.3 0.1 0  0.35 0.1 0  0.4 0.1 0  0.45 0.1 0  0.5 0.1 0  0.55 0.1 0  0.6 0.1 0  0.65 0.1 0  0.7 0.1 0  0.75 0.1 0  0.8 0.1 0  0.85 0.1 0  0.9 0.1 0  0.95 0.1 0  1 0.1 0  0 0.15 0  0.05 0.15 0  0.1 0.15 0  0.15 0.15 0  0.2 0.15 0  0.25 0.15 0  0.3 0.15 0  0.35 0.15 0  0.4 0.15 0  0.45 0.15 0  0.5 0.15 0  0.55 0.15 0  0.6 0.15 0  0.65 0.15 0  0.7 0.15 0  0.75 0.15 0  0.8 0.15 0  0.85 0.15 0  0.9 0.15 0  0.95 0.15 0  1 0.15 0  0 0.2 0  0.05 0.2 0  0.1 0.2 0  0.15 0.2 0  0.2 0.2 0  0.25 0.2 0  0.3 0.2 0  0.35 0.2 0  0.4 0.2 0  0.45 0.2 0  0.5 0.2 0  0.55 0.2 0  0.6 0.2 0  0.65 0.2 0  0.7 0.2 0  0.75 0.2 0  0.8 0.2 0  0.85 0.2 0  0.9 0.2 0  0.95 0.2 0  1 0.2 0  0 0.25 0  0.05 0.25 0  0.1 0.25 0  0.15 0.25 0  0.2 0.25 0  0.25 0.25 0  0.3 0.25 0  0.35 0.25 0  0.4 0.25 0  0.45 0.25 0  0.5 0.25 0  0.55 0.25 0  0.6 0.25 0  0.65 0.25 0  0.7 0.25 0  0.75 0.25 0  0.8 0.25 0  0.85 0.25 0  0.9 0.25 0  0.95 0.25 0  1 0.25 0  0 0.3 0  0.05 0.3 0  0.1 0.3 0  0.15 0.3 0  0.2 0.3 0  0.25 0.3 0  0.3 0.3 0  0.35 0.3 0  0.4 0.3 0  0.45 0.3 0  0.5 0.3 0  0.55 0.3 0  0.6 0.3 0  0.65 0.3 0  0.7 0.3 0  0.75 0.3 0  0.8 0.3 0  0.85 0.3 0  0.9 0.3 0  0.95 0.3 0  1 0.3 0  0 0.35 0  0.05 0.35 0  0.1 0.35 0  0.15 0.35 0  0.2 0.35 0  0.25 0.35 0  0.3 0.35 0  0.35 0.35 0  0.4 0.35 0  0.45 0.35 0  0.5 0.35 0  0.55 0.35 0  0.6 0.35 0  0.65 0.35 0  0.7 0.35 0  0.75 0.35 0  0.8 0.35 0  0.85 0.35 0  0.9 0.35 0  0.95 0.35 0  1 0.35 0  0 0.4 0  0.05 0.4 0  0.1 0.4 0  0.15 0.4 0  0.2 0.4 0  0.25 0.4 0  0.3 0.4 0  0.35 0.4 0  0.4 0.4 0  0.45 0.4 0  0.5 0.4 0  0.55 0.4 0  0.6 0.4 0  0.65 0.4 0  0.7 0.4 0  0.75 0.4 0  0.8 0.4 0  0.85 0.4 0  0.9 0.4 0  0.95 0.4 0  1 0.4 0  0 0.45 0  0.05 0.45 0  0.1 0.45 0  0.15 0.45 0  0.2 0.45 0  0.25 0.45 0  0.3 0.45 0  0.35 0.45 0  0.4 0.45 0  0.45 0.45 0  0.5 0.45 0  0.55 0.45 0  0.6 0.45 0  0.65 0.45 0  0.7 0.45 0  0.75 0.45 0  0.8 0.45 0  0.85 0.45 0  0.9 0.45 0  0.95 0.45 0  1 0.45 0  0 0.5 0  0.05 0.5 0  0.1 0.5 0  0.15 0.5 0  0.2 0.5 0  0.25 0.5 0  0.3 0.5 0  0.35 0.5 0  0.4 0.5 0  0.45 0.5 0  0.5 0.5 0  0.55 0.5 0  0.6 0.5 0  0.65 0.5 0  0.7 0.5 0  0.75 0.5 0  0.8 0.5 0  0.85 0.5 0  0.9 0.5 0  0.95 0.5 0  1 0.5 0  0 0.55 0  0.05 0.55 0  0.1 0.55 0  0.15 0.55 0  0.2 0.55 0  0.25 0.55 0  0.3 0.55 0  0.35 0.55 0  0.4 0.55 0  0.45 0.55 0  0.5 0.55 0  0.55 0.55 0  0.6 0.55 0  0.65 0.55 0  0.7 0.55 0  0.75 0.55 0  0.8 0.55 0  0.85 0.55 0  0.9 0.55 0  0.95 0.55 0  1 0.55 0  0 0.6 0  0.05 0.6 0  0.1 0.6 0  0.15 0.6 0  0.2 0.6 0  0.25 0.6 0  0.3 0.6 0  0.35 0.6 0  0.4 0.6 0  0.45 0.6 0  0.5 0.6 0  0.55 0.6 0  0.6 0.6 0  0.65 0.6 0  0.7 0.6 0  0.75 0.6 0  0.8 0.6 0  0.85 0.6 0  0.9 0.6 0  0.95 0.6 0  1 0.6 0  0 0.65 0  0.05 0.65 0  0.1 0.65 0  0.15 0.65 0  0.2 0.65 0  0.25 0.65 0  0.3 0.65 0  0.35 0.65 0  0.4 0.65 0  0.45 0.65 0  0.5 0.65 0  0.55 0.65 0  0.6 0.65 0  0.65 0.65 0  0.7 0.65 0  0.75 0.65 0  0.8 0.65 0  0.85 0.65 0  0.9 0.65 0  0.95 0.65 0  1 0.65 0  0 0.7 0  0.05 0.7 0  0.1 0.7 0  0.15 0.7 0  0.2 0.7 0  0.25 0.7 0  0.3 0.7 0  0.35 0.7 0  0.4 0.7 0  0.45 0.7 0  0.5 0.7 0  0.55 0.7 0  0.6 0.7 0  0.65 0.7 0  0.7 0.7 0  0.75 0.7 0  0.8 0.7 0  0.85 0.7 0  0.9 0.7 0  0.95 0.7 0  1 0.7 0  0 0.75 0  0.05 0.75 0  0.1 0.75 0  0.15 0.75 0  0.2 0.75 0  0.25 0.75 0  0.3 0.75 0  0.35 0.75 0  0.4 0.75 0  0.45 0.75 0  0.5 0.75 0  0.55 0.75 0  0.6 0.75 0  0.65 0.75 0  0.7 0.75 0  0.75 0.75 0  0.8 0.75 0  0.85 0.75 0  0.9 0.75 0  0.95 0.75 0  1 0.75 0  0 0.8 0  0.05 0.8 0  0.1 0.8 0  0.15 0.8 0  0.2 0.8 0  0.25 0.8 0  0.3 0.8 0  0.35 0.8 0  0.4 0.8 0  0.45 0.8 0  0.5 0.8 0  0.55 0.8 0  0.6 0.8 0  0.65 0.8 0  0.7 0.8 0  0.75 0.8 0  0.8 0.8 0  0.85 0.8 0  0.9 0.8 0  0.95 0.8 0  1 0.8 0  0 0.85 0  0.05 0.85 0  0.1 0.85 0  0.15 0.85 0  0.2 0.85 0  0.25 0.85 0  0.3 0.85 0  0.35 0.85 0  0.4 0.85 0  0.45 0.85 0  0.5 0.85 0  0.55 0.85 0  0.6 0.85 0  0.65 0.85 0  0.7 0.85 0  0.75 0.85 0  0.8 0.85 0  0.85 0.85 0  0.9 0.85 0  0.95 0.85 0  1 0.85 0  0 0.9 0  0.05 0.9 0  0.1 0.9 0  0.15 0.9 0  0.2 0.9 0  0.25 0.9 0  0.3 0.9 0  0.35 0.9 0  0.4 0.9 0  0.45 0.9 0  0.5 0.9 0  0.55 0.9 0  0.6 0.9 0  0.65 0.9 0  0.7 0.9 0  0.75 0.9 0  0.8 0.9 0  0.85 0.9 0  0.9 0.9 0  0.95 0.9 0  1 0.9 0  0 0.95 0  0.05 0.95 0  0.1 0.95 0  0.15 0.95 0  0.2 0.95 0  0.25 0.95 0  0.3 0.95 0  0.35 0.95 0  0.4 0.95 0  0.45 0.95 0  0.5 0.95 0  0.55 0.95 0  0.6 0.95 0  0.65 0.95 0  0.7 0.95 0  0.75 0.95 0  0.8 0.95 0  0.85 0.95 0  0.9 0.95 0  0.95 0.95 0  1 0.95 0  0 1 0  0.05 1 0  0.1 1 0  0.15 1 0  0.2 1 0  0.25 1 0  0.3 1 0  0.35 1 0  0.4 1 0  0.45 1 0  0.5 1 0  0.55 1 0  0.6 1 0  0.65 1 0  0.7 1 0  0.75 1 0  0.8 1 0  0.85 1 0  0.9 1 0  0.95 1 0  1 1 0  </DataArray>
</Points>
<Cells>
[...]
<PointData  Vectors="u"> 
<DataArray  type="Float32"  Name="u"  NumberOfComponents="3" format="ascii">0.000000e+000 0.000000e+000 0.000000e+000  0.000000e+000 0.000000e+000 0.000000e+000  0.000000e+000 0.000000e+000 0.000000e+000  0.000000e+000 0.000000e+000 0.000000e+000  0.000000e+000 0.000000e+000 0.000000e+000  0.000000e+000 0.000000e+000 0.000000e+000  0.000000e+000 0.000000e+000 0.000000e+000  0.000000e+000 0.000000e+000 0.000000e+000  0.000000e+000 0.000000e+000 0.000000e+000  0.000000e+000 0.000000e+000 0.000000e+000  0.000000e+000 0.000000e+000 0.000000e+000  0.000000e+000 0.000000e+000 0.000000e+000  0.000000e+000 0.000000e+000 0.000000e+000  0.000000e+000 0.000000e+000 0.000000e+000  0.000000e+000 0.000000e+000 0.000000e+000  0.000000e+000 0.000000e+000 0.000000e+000  0.000000e+000 0.000000e+000 0.000000e+000  0.000000e+000 0.000000e+000 0.000000e+000  0.000000e+000 0.000000e+000 0.000000e+000  0.000000e+000 0.000000e+000 0.000000e+000  0.000000e+000 0.000000e+000 0.000000e+000  0.000000e+000 0.000000e+000 0.000000e+000  1.740911e-004 4.979877e-004 0.000000e+000  -6.247026e-004 1.086483e-003 0.000000e+000  -2.434154e-003 1.585283e-003 0.000000e+000  -5.002485e-003 1.908266e-003 0.000000e+000  -7.990372e-003 2.041250e-003 0.000000e+000  -1.105495e-002 1.995821e-003 0.000000e+000  -1.388180e-002 1.794352e-003 0.000000e+000  -1.620247e-002 1.465173e-003 0.000000e+000  -1.780510e-002 1.040710e-003 0.000000e+000  -1.854254e-002 5.573705e-004 0.000000e+000  -1.833970e-002 5.485997e-005 0.000000e+000  -1.720120e-002 -4.225379e-004 0.000000e+000  -1.521778e-002 -8.278388e-004 0.000000e+000  -1.257004e-002 -1.112845e-003 0.000000e+000  -9.526300e-003 -1.231840e-003 0.000000e+000  -6.430000e-003 -1.148399e-003 0.000000e+000  -3.669886e-003 -8.461745e-004 0.000000e+000  -1.626125e-003 -3.579026e-004 0.000000e+000  -4.897318e-004 1.560101e-004 0.000000e+000  0.000000e+000 0.000000e+000 0.000000e+000  0.000000e+000 0.000000e+000 0.000000e+000  -3.220288e-004 1.547026e-003 0.000000e+000  -2.245398e-003 3.529849e-003 0.000000e+000  -5.710767e-003 5.197484e-003 0.000000e+000  -1.032180e-002 6.287550e-003 0.000000e+000  -1.556223e-002 6.732605e-003 0.000000e+000  -2.088719e-002 6.555550e-003 0.000000e+000  -2.578241e-002 5.825613e-003 0.000000e+000  -2.980021e-002 4.638340e-003 0.000000e+000  -3.258211e-002 3.107590e-003 0.000000e+000  -3.387612e-002 1.362721e-003 0.000000e+000  -3.355121e-002 -4.527453e-004 0.000000e+000  -3.161139e-002 -2.180872e-003 0.000000e+000  -2.820417e-002 -3.654177e-003 0.000000e+000  -2.362778e-002 -4.703536e-003 0.000000e+000  -1.832079e-002 -5.173443e-003 0.000000e+000  -1.283791e-002 -4.947651e-003 0.000000e+000  -7.794058e-003 -3.990249e-003 0.000000e+000  -3.763705e-003 -2.424056e-003 0.000000e+000  -1.130084e-003 -7.021542e-004 0.000000e+000  0.000000e+000 0.000000e+000 0.000000e+000  0.000000e+000 0.000000e+000 0.000000e+000  -8.527460e-004 3.550968e-003 0.000000e+000  -4.009950e-003 7.420012e-003 0.000000e+000  -9.085065e-003 1.060946e-002 0.000000e+000  -1.551878e-002 1.267978e-002 0.000000e+000  -2.266095e-002 1.349227e-002 0.000000e+000  -2.983313e-002 1.307574e-002 0.000000e+000  -3.639237e-002 1.155422e-002 0.000000e+000  -4.177275e-002 9.110313e-003 0.000000e+000  -4.551512e-002 5.967794e-003 0.000000e+000  -4.729069e-002 2.384753e-003 0.000000e+000  -4.692103e-002 -1.349656e-003 0.000000e+000  -4.439695e-002 -4.917535e-003 0.000000e+000  -3.989159e-002 -7.981734e-003 0.000000e+000  -3.376968e-002 -1.020369e-002 0.000000e+000  -2.657633e-002 -1.127621e-002 0.000000e+000  -1.900811e-002 -1.097494e-002 0.000000e+000  -1.184900e-002 -9.234634e-003 0.000000e+000  -5.875060e-003 -6.266212e-003 0.000000e+000  -1.750020e-003 -2.737266e-003 0.000000e+000  0.000000e+000 0.000000e+000 0.000000e+000  0.000000e+000 0.000000e+000 0.000000e+000  -1.336492e-003 6.483067e-003 0.000000e+000  -5.675658e-003 1.274189e-002 0.000000e+000  -1.229827e-002 1.771811e-002 0.000000e+000  -2.044354e-002 2.087809e-002 0.000000e+000  -2.931968e-002 2.204253e-002 0.000000e+000  -3.813919e-002 2.125787e-002 0.000000e+000  -4.616664e-002 1.871232e-002 0.000000e+000  -5.275429e-002 1.468692e-002 0.000000e+000  -5.737115e-002 9.530568e-003 0.000000e+000  -5.962769e-002 3.649301e-003 0.000000e+000  -5.929842e-002 -2.498624e-003 0.000000e+000  -5.634604e-002 -8.406468e-003 0.000000e+000  -5.094031e-002 -1.353348e-002 0.000000e+000  -4.347487e-002 -1.733389e-002 0.000000e+000  -3.456340e-002 -1.930886e-002 0.000000e+000  -2.501755e-002 -1.908592e-002 0.000000e+000  -1.579129e-002 -1.652714e-002 0.000000e+000  -7.898349e-003 -1.186915e-002 0.000000e+000  -2.326865e-003 -5.880647e-003 0.000000e+000  0.000000e+000 0.000000e+000 0.000000e+000  0.000000e+000 0.000000e+000 0.000000e+000  -1.774445e-003 1.027479e-002 0.000000e+000  -7.214667e-003 1.943401e-002 0.000000e+000  -1.531001e-002 2.644654e-002 0.000000e+000  -2.508487e-002 3.077271e-002 0.000000e+000  -3.559854e-002 3.224513e-002 0.000000e+000  -4.596259e-002 3.095682e-002 0.000000e+000  -5.536733e-002 2.717642e-002 0.000000e+000  -6.310507e-002 2.129309e-002 0.000000e+000  -6.859072e-002 1.378723e-002 0.000000e+000  -7.138181e-002 5.218826e-003 0.000000e+000  -7.120107e-002 -3.775424e-003 0.000000e+000  -6.796532e-002 -1.248471e-002 0.000000e+000  -6.181204e-002 -2.014016e-002 0.000000e+000  -5.313254e-002 -2.595285e-002 0.000000e+000  -4.258205e-002 -2.918366e-002 0.000000e+000  -3.107830e-002 -2.925088e-002 0.000000e+000  -1.976089e-002 -2.587092e-002 0.000000e+000  -9.917356e-003 -1.922155e-002 0.000000e+000  -2.893220e-003 -1.009610e-002 0.000000e+000  0.000000e+000 0.000000e+000 0.000000e+000  0.000000e+000 0.000000e+000 0.000000e+000  -2.180769e-003 1.485938e-002 0.000000e+000  -8.652479e-003 2.741641e-002 0.000000e+000  -1.814004e-002 3.671480e-002 0.000000e+000  -2.945815e-002 4.227829e-002 0.000000e+000  -4.152077e-002 4.401027e-002 0.000000e+000  -5.334705e-002 4.209075e-002 0.000000e+000  -6.406900e-002 3.689165e-002 0.000000e+000  -7.293722e-002 2.891903e-002 0.000000e+000  -7.932653e-002 1.878435e-002 0.000000e+000  -8.274647e-002 7.196265e-003 0.000000e+000  -8.285993e-002 -5.034133e-003 0.000000e+000  -7.951587e-002 -1.698904e-002 0.000000e+000  -7.278824e-002 -2.765413e-002 0.000000e+000  -6.302938e-002 -3.596004e-002 0.000000e+000  -5.090753e-002 -4.086698e-002 0.000000e+000  -3.743470e-002 -4.150053e-002 0.000000e+000  -2.395000e-002 -3.733244e-002 0.000000e+000  -1.205333e-002 -2.838437e-002 0.000000e+000  -3.491627e-003 -1.541029e-002 0.000000e+000  0.000000e+000 0.000000e+000 0.000000e+000  0.000000e+000 0.000000e+000 0.000000e+000  -2.566213e-003 2.018796e-002 0.000000e+000  -1.000690e-002 3.661188e-002 0.000000e+000  -2.079152e-002 4.842936e-002 0.000000e+000  -3.353520e-002 5.529149e-002 0.000000e+000  -4.701949e-002 5.723494e-002 0.000000e+000  -6.018930e-002 5.457374e-002 0.000000e+000  -7.214163e-002 4.780961e-002 0.000000e+000  -8.210910e-002 3.757275e-002 0.000000e+000  -8.944444e-002 2.459754e-002 0.000000e+000  -9.361607e-002 9.723707e-003 0.000000e+000  -9.421872e-002 -6.082419e-003 0.000000e+000  -9.100780e-002 -2.170690e-002 0.000000e+000  -8.395424e-002 -3.588282e-002 0.000000e+000  -7.332192e-002 -4.722403e-002 0.000000e+000  -5.974751e-002 -5.431774e-002 0.000000e+000  -4.431009e-002 -5.588930e-002 0.000000e+000  -2.855305e-002 -5.103570e-002 0.000000e+000  -1.443140e-002 -3.949959e-002 0.000000e+000  -4.164637e-003 -2.192205e-002 0.000000e+000  0.000000e+000 0.000000e+000 0.000000e+000  0.000000e+000 0.000000e+000 0.000000e+000  -2.932519e-003 2.621909e-002 0.000000e+000  -1.126916e-002 4.693046e-002 0.000000e+000  -2.321763e-002 6.145818e-002 0.000000e+000  -3.720335e-002 6.965216e-002 0.000000e+000  -5.189783e-002 7.175244e-002 0.000000e+000  -6.620369e-002 6.826024e-002 0.000000e+000  -7.921987e-002 5.983621e-002 0.000000e+000  -9.019699e-002 4.723886e-002 0.000000e+000  -9.849443e-002 3.130735e-002 0.000000e+000  -1.035539e-001 1.298051e-002 0.000000e+000  -1.048970e-001 -6.658721e-003 0.000000e+000  -1.021587e-001 -2.633152e-002 0.000000e+000  -9.515494e-002 -4.452766e-002 0.000000e+000  -8.399308e-002 -5.951544e-002 0.000000e+000  -6.920427e-002 -6.942813e-002 0.000000e+000  -5.187884e-002 -7.245557e-002 0.000000e+000  -3.375062e-002 -6.714581e-002 0.000000e+000  -1.717562e-002 -5.278994e-002 0.000000e+000  -4.955510e-003 -2.980428e-002 0.000000e+000  0.000000e+000 0.000000e+000 0.000000e+000  0.000000e+000 0.000000e+000 0.000000e+000  -3.272155e-003 3.290208e-002 0.000000e+000  -1.239815e-002 5.824548e-002 0.000000e+000  -2.530603e-002 7.559822e-002 0.000000e+000  -4.024146e-002 8.510035e-002 0.000000e+000  -5.579893e-002 8.728043e-002 0.000000e+000  -7.088754e-002 8.288980e-002 0.000000e+000  -8.466426e-002 7.277968e-002 0.000000e+000  -9.645177e-002 5.783563e-002 0.000000e+000  -1.056601e-001 3.897221e-002 0.000000e+000  -1.117328e-001 1.717546e-002 0.000000e+000  -1.141224e-001 -6.417098e-003 0.000000e+000  -1.123178e-001 -3.042118e-002 0.000000e+000  -1.059195e-001 -5.312097e-002 0.000000e+000  -9.478542e-002 -7.243042e-002 0.000000e+000  -7.922723e-002 -8.594863e-002 0.000000e+000  -6.024307e-002 -9.116424e-002 0.000000e+000  -3.970611e-002 -8.583828e-002 0.000000e+000  -2.041647e-002 -6.855159e-002 0.000000e+000  -5.912268e-003 -3.930649e-002 0.000000e+000  0.000000e+000 0.000000e+000 0.000000e+000  0.000000e+000 0.000000e+000 0.000000e+000  -3.569182e-003 4.015986e-002 0.000000e+000  -1.332008e-002 7.036314e-002 0.000000e+000  -2.687269e-002 9.053302e-002 0.000000e+000  -4.230459e-002 1.012231e-001 0.000000e+000  -5.818080e-002 1.033611e-001 0.000000e+000  -7.348796e-002 9.802526e-002 0.000000e+000  -8.752028e-002 8.629096e-002 0.000000e+000  -9.974798e-002 6.916272e-002 0.000000e+000  -1.096962e-001 4.758627e-002 0.000000e+000  -1.168558e-001 2.252361e-002 0.000000e+000  -1.206318e-001 -4.924264e-003 0.000000e+000  -1.203531e-001 -3.336515e-002 0.000000e+000  -1.153438e-001 -6.095892e-002 0.000000e+000  -1.050950e-001 -8.529697e-002 0.000000e+000  -8.953583e-002 -1.033849e-001 0.000000e+000  -6.939466e-002 -1.118186e-001 0.000000e+000  -4.656263e-002 -1.072470e-001 0.000000e+000  -2.430349e-002 -8.714415e-002 0.000000e+000  -7.095208e-003 -5.076711e-002 0.000000e+000  0.000000e+000 0.000000e+000 0.000000e+000  0.000000e+000 0.000000e+000 0.000000e+000  -3.801336e-003 4.787366e-002 0.000000e+000  -1.393067e-002 8.298987e-002 0.000000e+000  -2.765796e-002 1.057826e-001 0.000000e+000  -4.290968e-002 1.173924e-001 0.000000e+000  -5.829173e-002 1.192934e-001 0.000000e+000  -7.296880e-002 1.129838e-001 0.000000e+000  -8.647848e-002 9.979680e-002 0.000000e+000  -9.853544e-002 8.083763e-002 0.000000e+000  -1.088630e-001 5.702429e-002 0.000000e+000  -1.170662e-001 2.920279e-002 0.000000e+000  -1.225508e-001 -1.682085e-003 0.000000e+000  -1.244979e-001 -3.436953e-002 0.000000e+000  -1.219135e-001 -6.703741e-002 0.000000e+000  -1.137980e-001 -9.705989e-002 0.000000e+000  -9.947938e-002 -1.208474e-001 0.000000e+000  -7.913559e-002 -1.339163e-001 0.000000e+000  -5.442705e-002 -1.313753e-001 0.000000e+000  -2.902010e-002 -1.089746e-001 0.000000e+000  -8.589091e-003 -6.463789e-002 0.000000e+000  0.000000e+000 0.000000e+000 0.000000e+000  0.000000e+000 0.000000e+000 0.000000e+000  -3.942900e-003 5.587057e-002 0.000000e+000  -1.409801e-002 9.569462e-002 0.000000e+000  -2.732001e-002 1.206418e-001 0.000000e+000  -4.141511e-002 1.326888e-001 0.000000e+000  -5.514036e-002 1.340536e-001 0.000000e+000  -6.797893e-002 1.267619e-001 0.000000e+000  -7.984427e-002 1.124274e-001 0.000000e+000  -9.080642e-002 9.222046e-002 0.000000e+000  -1.008799e-001 6.695851e-002 0.000000e+000  -1.098702e-001 3.726874e-002 0.000000e+000  -1.172636e-001 3.803023e-003 0.000000e+000  -1.221572e-001 -3.248822e-002 0.000000e+000  -1.232520e-001 -7.001737e-002 0.000000e+000  -1.189664e-001 -1.061584e-001 0.000000e+000  -1.077816e-001 -1.368560e-001 0.000000e+000  -8.891021e-002 -1.564347e-001 0.000000e+000  -6.331005e-002 -1.579382e-001 0.000000e+000  -3.479987e-002 -1.344519e-001 0.000000e+000  -1.052277e-002 -8.152488e-002 0.000000e+000  0.000000e+000 0.000000e+000 0.000000e+000  0.000000e+000 0.000000e+000 0.000000e+000  -3.969848e-003 6.391349e-002 0.000000e+000  -1.366184e-002 1.078660e-001 0.000000e+000  -2.541328e-002 1.341029e-001 0.000000e+000  -3.697917e-002 1.458152e-001 0.000000e+000  -4.744943e-002 1.462218e-001 0.000000e+000  -5.681952e-002 1.379747e-001 0.000000e+000  -6.552787e-002 1.229573e-001 0.000000e+000  -7.410202e-002 1.023418e-001 0.000000e+000  -8.292918e-002 7.676290e-002 0.000000e+000  -9.210503e-002 4.653171e-002 0.000000e+000  -1.013104e-001 1.187893e-002 0.000000e+000  -1.096972e-001 -2.674710e-002 0.000000e+000  -1.157802e-001 -6.827251e-002 0.000000e+000  -1.174249e-001 -1.104338e-001 0.000000e+000  -1.120722e-001 -1.490726e-001 0.000000e+000  -9.743107e-002 -1.774323e-001 0.000000e+000  -7.295788e-002 -1.860057e-001 0.000000e+000  -4.193665e-002 -1.638755e-001 0.000000e+000  -1.310469e-002 -1.022774e-001 0.000000e+000  0.000000e+000 0.000000e+000 0.000000e+000  0.000000e+000 0.000000e+000 0.000000e+000  -3.864322e-003 7.169714e-002 0.000000e+000  -1.241730e-002 1.186400e-001 0.000000e+000  -2.132445e-002 1.447392e-001 0.000000e+000  -2.846244e-002 1.549915e-001 0.000000e+000  -3.357022e-002 1.539156e-001 0.000000e+000  -3.740808e-002 1.448250e-001 0.000000e+000  -4.106947e-002 1.297806e-001 0.000000e+000  -4.558757e-002 1.098486e-001 0.000000e+000  -5.175228e-002 8.540047e-002 0.000000e+000  -6.001278e-002 5.637242e-002 0.000000e+000  -7.037987e-002 2.249733e-002 0.000000e+000  -8.227731e-002 -1.642400e-002 0.000000e+000  -9.431877e-002 -6.011935e-002 0.000000e+000  -1.040994e-001 -1.071976e-001 0.000000e+000  -1.080452e-001 -1.540891e-001 0.000000e+000  -1.019060e-001 -1.935804e-001 0.000000e+000  -8.241776e-002 -2.135486e-001 0.000000e+000  -5.069750e-002 -1.972367e-001 0.000000e+000  -1.664471e-002 -1.280309e-001 0.000000e+000  0.000000e+000 0.000000e+000 0.000000e+000  0.000000e+000 0.000000e+000 0.000000e+000  -3.616288e-003 7.884234e-002 0.000000e+000  -1.004705e-002 1.267526e-001 0.000000e+000  -1.408947e-002 1.505259e-001 0.000000e+000  -1.420720e-002 1.578523e-001 0.000000e+000  -1.132697e-002 1.548000e-001 0.000000e+000  -7.242467e-003 1.451749e-001 0.000000e+000  -3.726142e-003 1.309775e-001 0.000000e+000  -2.237093e-003 1.130136e-001 0.000000e+000  -3.894978e-003 9.133816e-002 0.000000e+000  -9.499680e-003 6.552535e-002 0.000000e+000  -1.950295e-002 3.484511e-002 0.000000e+000  -3.386307e-002 -1.562545e-003 0.000000e+000  -5.176843e-002 -4.441046e-002 0.000000e+000  -7.116843e-002 -9.367683e-002 0.000000e+000  -8.806233e-002 -1.473518e-001 0.000000e+000  -9.642982e-002 -1.992898e-001 0.000000e+000  -8.869702e-002 -2.358070e-001 0.000000e+000  -6.097220e-002 -2.328010e-001 0.000000e+000  -2.181088e-002 -1.602974e-001 0.000000e+000  0.000000e+000 0.000000e+000 0.000000e+000  0.000000e+000 0.000000e+000 0.000000e+000  -3.226706e-003 8.469855e-002 0.000000e+000  -5.856626e-003 1.302353e-001 0.000000e+000  -1.908089e-003 1.485442e-001 0.000000e+000  8.420474e-003 1.514073e-001 0.000000e+000  2.222782e-002 1.462567e-001 0.000000e+000  3.659789e-002 1.367823e-001 0.000000e+000  4.933200e-002 1.245150e-001 0.000000e+000  5.882817e-002 1.098435e-001 0.000000e+000  6.384594e-002 9.251878e-002 0.000000e+000  6.334143e-002 7.187232e-002 0.000000e+000  5.640429e-002 4.689444e-002 0.000000e+000  4.232961e-002 1.626132e-002 0.000000e+000  2.082927e-002 -2.160296e-002 0.000000e+000  -7.300626e-003 -6.821133e-002 0.000000e+000  -3.926059e-002 -1.241681e-001 0.000000e+000  -6.873251e-002 -1.868188e-001 0.000000e+000  -8.347164e-002 -2.442662e-001 0.000000e+000  -7.117737e-002 -2.668889e-001 0.000000e+000  -2.937699e-002 -2.022132e-001 0.000000e+000  0.000000e+000 0.000000e+000 0.000000e+000  0.000000e+000 0.000000e+000 0.000000e+000  -2.408663e-003 8.857542e-002 0.000000e+000  2.124783e-003 1.256016e-001 0.000000e+000  1.904049e-002 1.345875e-001 0.000000e+000  4.385467e-002 1.323497e-001 0.000000e+000  7.105388e-002 1.259406e-001 0.000000e+000  9.729284e-002 1.178112e-001 0.000000e+000  1.206405e-001 1.086261e-001 0.000000e+000  1.398170e-001 9.831815e-002 0.000000e+000  1.537652e-001 8.645922e-002 0.000000e+000  1.614089e-001 7.235522e-002 0.000000e+000  1.615213e-001 5.502134e-002 0.000000e+000  1.526701e-001 3.308562e-002 0.000000e+000  1.332588e-001 4.650523e-003 0.000000e+000  1.019711e-001 -3.284595e-002 0.000000e+000  5.817337e-002 -8.260994e-002 0.000000e+000  5.449337e-003 -1.468158e-001 0.000000e+000  -4.527205e-002 -2.217145e-001 0.000000e+000  -7.124039e-002 -2.828283e-001 0.000000e+000  -3.804271e-002 -2.483209e-001 0.000000e+000  0.000000e+000 0.000000e+000 0.000000e+000  0.000000e+000 0.000000e+000 0.000000e+000  4.632619e-004 8.750368e-002 0.000000e+000  2.005777e-002 1.052981e-001 0.000000e+000  5.740010e-002 1.036209e-001 0.000000e+000  9.920366e-002 9.843482e-002 0.000000e+000  1.399128e-001 9.292243e-002 0.000000e+000  1.777186e-001 8.759402e-002 0.000000e+000  2.117956e-001 8.230042e-002 0.000000e+000  2.415830e-001 7.673425e-002 0.000000e+000  2.664567e-001 7.051137e-002 0.000000e+000  2.855592e-001 6.314635e-002 0.000000e+000  2.976702e-001 5.398278e-002 0.000000e+000  3.010559e-001 4.207232e-002 0.000000e+000  2.932991e-001 2.597070e-002 0.000000e+000  2.710960e-001 3.353199e-003 0.000000e+000  2.299064e-001 -2.950819e-002 0.000000e+000  1.666194e-001 -7.857196e-002 0.000000e+000  7.701443e-002 -1.532098e-001 0.000000e+000  -1.654346e-002 -2.521090e-001 0.000000e+000  -5.128514e-002 -3.020783e-001 0.000000e+000  0.000000e+000 0.000000e+000 0.000000e+000  0.000000e+000 0.000000e+000 0.000000e+000  1.544798e-002 6.302280e-002 0.000000e+000  7.083616e-002 5.943818e-002 0.000000e+000  1.295006e-001 5.486897e-002 0.000000e+000  1.831210e-001 5.155256e-002 0.000000e+000  2.328471e-001 4.919626e-002 0.000000e+000  2.792327e-001 4.733519e-002 0.000000e+000  3.225606e-001 4.567859e-002 0.000000e+000  3.629062e-001 4.404019e-002 0.000000e+000  4.000829e-001 4.226126e-002 0.000000e+000  4.336383e-001 4.017282e-002 0.000000e+000  4.627865e-001 3.755576e-002 0.000000e+000  4.862747e-001 3.408892e-002 0.000000e+000  5.021433e-001 2.925012e-002 0.000000e+000  5.072132e-001 2.211996e-002 0.000000e+000  4.964508e-001 1.107590e-002 0.000000e+000  4.612201e-001 -7.731392e-003 0.000000e+000  3.825358e-001 -4.121805e-002 0.000000e+000  2.557262e-001 -9.888892e-002 0.000000e+000  2.093041e-002 -2.293075e-001 0.000000e+000  0.000000e+000 0.000000e+000 0.000000e+000  1.000000e-001 0.000000e+000 0.000000e+000  1.500000e-001 0.000000e+000 0.000000e+000  2.000000e-001 0.000000e+000 0.000000e+000  2.500000e-001 0.000000e+000 0.000000e+000  3.000000e-001 0.000000e+000 0.000000e+000  3.500000e-001 0.000000e+000 0.000000e+000  4.000000e-001 0.000000e+000 0.000000e+000  4.500000e-001 0.000000e+000 0.000000e+000  5.000000e-001 0.000000e+000 0.000000e+000  5.500000e-001 0.000000e+000 0.000000e+000  6.000000e-001 0.000000e+000 0.000000e+000  6.500000e-001 0.000000e+000 0.000000e+000  7.000000e-001 0.000000e+000 0.000000e+000  7.500000e-001 0.000000e+000 0.000000e+000  8.000000e-001 0.000000e+000 0.000000e+000  8.500000e-001 0.000000e+000 0.000000e+000  9.000000e-001 0.000000e+000 0.000000e+000  9.500000e-001 0.000000e+000 0.000000e+000  1.000000e+000 0.000000e+000 0.000000e+000  1.050000e+000 0.000000e+000 0.000000e+000  1.100000e+000 0.000000e+000 0.000000e+000  </DataArray> 
</PointData> 
</Piece>
</UnstructuredGrid>
</VTKFile>