<?xml version="1.0"?>
<VTKFile type="UnstructuredGrid"  version="0.1"  >
<UnstructuredGrid>
<Piece  NumberOfPoints="2601" NumberOfCells="5000">
<Points>
<DataArray  type="Float32"  NumberOfComponents="3"  format="ascii">0 0 0  0.02 0 0  0.04 0 0  0.06 0 0  0.08 0 0  0.1 0 0  0.12 0 0  0.14 0 0  0.16 0 0  0.18 0 0  0.2 0 0  0.22 0 0  0.24 0 0  0.26 0 0  0.28 0 0  0.3 0 0  0.32 0 0  0.34 0 0  0.36 0 0  0.38 0 0  0.4 0 0  0.42 0 0  0.44 0 0  0.46 0 0  0.48 0 0  0.5 0 0  0.52 0 0  0.54 0 0  0.56 0 0  0.58 0 0  0.6 0 0  0.62 0 0  0.64 0 0  0.66 0 0  0.68 0 0  0.7 0 0  0.72 0 0  0.74 0 0  0.76 0 0  0.78 0 0  0.8 0 0  0.82 0 0  0.84 0 0  0.86 0 0  0.88 0 0  0.9 0 0  0.92 0 0  0.94 0 0  0.96 0 0  0.98 0 0  1 0 0  0 0.02 0  0.02 0.02 0  0.04 0.02 0  0.06 0.02 0  0.08 0.02 0  0.1 0.02 0  0.12 0.02 0  0.14 0.02 0  0.16 0.02 0  0.18 0.02 0  0.2 0.02 0  0.22 0.02 0  0.24 0.02 0  0.26 0.02 0  0.28 0.02 0  0.3 0.02 0  0.32 0.02 0  0.34 0.02 0  0.36 0.02 0  0.38 0.02 0  0.4 0.02 0  0.42 0.02 0  0.44 0.02 0  0.46 0.02 0  0.48 0.02 0  0.5 0.02 0  0.52 0.02 0  0.54 0.02 0  0.56 0.02 0  0.58 0.02 0  0.6 0.02 0  0.62 0.02 0  0.64 0.02 0  0.66 0.02 0  0.68 0.02 0  0.7 0.02 0  0.72 0.02 0  0.74 0.02 0  0.76 0.02 0  0.78 0.02 0  0.8 0.02 0  0.82 0.02 0  0.84 0.02 0  0.86 0.02 0  0.88 0.02 0  0.9 0.02 0  0.92 0.02 0  0.94 0.02 0  0.96 0.02 0  0.98 0.02 0  1 0.02 0  0 0.04 0  0.02 0.04 0  0.04 0.04 0  0.06 0.04 0  0.08 0.04 0  0.1 0.04 0  0.12 0.04 0  0.14 0.04 0  0.16 0.04 0  0.18 0.04 0  0.2 0.04 0  0.22 0.04 0  0.24 0.04 0  0.26 0.04 0  0.28 0.04 0  0.3 0.04 0  0.32 0.04 0  0.34 0.04 0  0.36 0.04 0  0.38 0.04 0  0.4 0.04 0  0.42 0.04 0  0.44 0.04 0  0.46 0.04 0  0.48 0.04 0  0.5 0.04 0  0.52 0.04 0  0.54 0.04 0  0.56 0.04 0  0.58 0.04 0  0.6 0.04 0  0.62 0.04 0  0.64 0.04 0  0.66 0.04 0  0.68 0.04 0  0.7 0.04 0  0.72 0.04 0  0.74 0.04 0  0.76 0.04 0  0.78 0.04 0  0.8 0.04 0  0.82 0.04 0  0.84 0.04 0  0.86 0.04 0  0.88 0.04 0  0.9 0.04 0  0.92 0.04 0  0.94 0.04 0  0.96 0.04 0  0.98 0.04 0  1 0.04 0  0 0.06 0  0.02 0.06 0  0.04 0.06 0  0.06 0.06 0  0.08 0.06 0  0.1 0.06 0  0.12 0.06 0  0.14 0.06 0  0.16 0.06 0  0.18 0.06 0  0.2 0.06 0  0.22 0.06 0  0.24 0.06 0  0.26 0.06 0  0.28 0.06 0  0.3 0.06 0  0.32 0.06 0  0.34 0.06 0  0.36 0.06 0  0.38 0.06 0  0.4 0.06 0  0.42 0.06 0  0.44 0.06 0  0.46 0.06 0  0.48 0.06 0  0.5 0.06 0  0.52 0.06 0  0.54 0.06 0  0.56 0.06 0  0.58 0.06 0  0.6 0.06 0  0.62 0.06 0  0.64 0.06 0  0.66 0.06 0  0.68 0.06 0  0.7 0.06 0  0.72 0.06 0  0.74 0.06 0  0.76 0.06 0  0.78 0.06 0  0.8 0.06 0  0.82 0.06 0  0.84 0.06 0  0.86 0.06 0  0.88 0.06 0  0.9 0.06 0  0.92 0.06 0  0.94 0.06 0  0.96 0.06 0  0.98 0.06 0  1 0.06 0  0 0.08 0  0.02 0.08 0  0.04 0.08 0  0.06 0.08 0  0.08 0.08 0  0.1 0.08 0  0.12 0.08 0  0.14 0.08 0  0.16 0.08 0  0.18 0.08 0  0.2 0.08 0  0.22 0.08 0  0.24 0.08 0  0.26 0.08 0  0.28 0.08 0  0.3 0.08 0  0.32 0.08 0  0.34 0.08 0  0.36 0.08 0  0.38 0.08 0  0.4 0.08 0  0.42 0.08 0  0.44 0.08 0  0.46 0.08 0  0.48 0.08 0  0.5 0.08 0  0.52 0.08 0  0.54 0.08 0  0.56 0.08 0  0.58 0.08 0  0.6 0.08 0  0.62 0.08 0  0.64 0.08 0  0.66 0.08 0  0.68 0.08 0  0.7 0.08 0  0.72 0.08 0  0.74 0.08 0  0.76 0.08 0  0.78 0.08 0  0.8 0.08 0  0.82 0.08 0  0.84 0.08 0  0.86 0.08 0  0.88 0.08 0  0.9 0.08 0  0.92 0.08 0  0.94 0.08 0  0.96 0.08 0  0.98 0.08 0  1 0.08 0  0 0.1 0  0.02 0.1 0  0.04 0.1 0  0.06 0.1 0  0.08 0.1 0  0.1 0.1 0  0.12 0.1 0  0.14 0.1 0  0.16 0.1 0  0.18 0.1 0  0.2 0.1 0  0.22 0.1 0  0.24 0.1 0  0.26 0.1 0  0.28 0.1 0  0.3 0.1 0  0.32 0.1 0  0.34 0.1 0  0.36 0.1 0  0.38 0.1 0  0.4 0.1 0  0.42 0.1 0  0.44 0.1 0  0.46 0.1 0  0.48 0.1 0  0.5 0.1 0  0.52 0.1 0  0.54 0.1 0  0.56 0.1 0  0.58 0.1 0  0.6 0.1 0  0.62 0.1 0  0.64 0.1 0  0.66 0.1 0  0.68 0.1 0  0.7 0.1 0  0.72 0.1 0  0.74 0.1 0  0.76 0.1 0  0.78 0.1 0  0.8 0.1 0  0.82 0.1 0  0.84 0.1 0  0.86 0.1 0  0.88 0.1 0  0.9 0.1 0  0.92 0.1 0  0.94 0.1 0  0.96 0.1 0  0.98 0.1 0  1 0.1 0  0 0.12 0  0.02 0.12 0  0.04 0.12 0  0.06 0.12 0  0.08 0.12 0  0.1 0.12 0  0.12 0.12 0  0.14 0.12 0  0.16 0.12 0  0.18 0.12 0  0.2 0.12 0  0.22 0.12 0  0.24 0.12 0  0.26 0.12 0  0.28 0.12 0  0.3 0.12 0  0.32 0.12 0  0.34 0.12 0  0.36 0.12 0  0.38 0.12 0  0.4 0.12 0  0.42 0.12 0  0.44 0.12 0  0.46 0.12 0  0.48 0.12 0  0.5 0.12 0  0.52 0.12 0  0.54 0.12 0  0.56 0.12 0  0.58 0.12 0  0.6 0.12 0  0.62 0.12 0  0.64 0.12 0  0.66 0.12 0  0.68 0.12 0  0.7 0.12 0  0.72 0.12 0  0.74 0.12 0  0.76 0.12 0  0.78 0.12 0  0.8 0.12 0  0.82 0.12 0  0.84 0.12 0  0.86 0.12 0  0.88 0.12 0  0.9 0.12 0  0.92 0.12 0  0.94 0.12 0  0.96 0.12 0  0.98 0.12 0  1 0.12 0  0 0.14 0  0.02 0.14 0  0.04 0.14 0  0.06 0.14 0  0.08 0.14 0  0.1 0.14 0  0.12 0.14 0  0.14 0.14 0  0.16 0.14 0  0.18 0.14 0  0.2 0.14 0  0.22 0.14 0  0.24 0.14 0  0.26 0.14 0  0.28 0.14 0  0.3 0.14 0  0.32 0.14 0  0.34 0.14 0  0.36 0.14 0  0.38 0.14 0  0.4 0.14 0  0.42 0.14 0  0.44 0.14 0  0.46 0.14 0  0.48 0.14 0  0.5 0.14 0  0.52 0.14 0  0.54 0.14 0  0.56 0.14 0  0.58 0.14 0  0.6 0.14 0  0.62 0.14 0  0.64 0.14 0  0.66 0.14 0  0.68 0.14 0  0.7 0.14 0  0.72 0.14 0  0.74 0.14 0  0.76 0.14 0  0.78 0.14 0  0.8 0.14 0  0.82 0.14 0  0.84 0.14 0  0.86 0.14 0  0.88 0.14 0  0.9 0.14 0  0.92 0.14 0  0.94 0.14 0  0.96 0.14 0  0.98 0.14 0  1 0.14 0  0 0.16 0  0.02 0.16 0  0.04 0.16 0  0.06 0.16 0  0.08 0.16 0  0.1 0.16 0  0.12 0.16 0  0.14 0.16 0  0.16 0.16 0  0.18 0.16 0  0.2 0.16 0  0.22 0.16 0  0.24 0.16 0  0.26 0.16 0  0.28 0.16 0  0.3 0.16 0  0.32 0.16 0  0.34 0.16 0  0.36 0.16 0  0.38 0.16 0  0.4 0.16 0  0.42 0.16 0  0.44 0.16 0  0.46 0.16 0  0.48 0.16 0  0.5 0.16 0  0.52 0.16 0  0.54 0.16 0  0.56 0.16 0  0.58 0.16 0  0.6 0.16 0  0.62 0.16 0  0.64 0.16 0  0.66 0.16 0  0.68 0.16 0  0.7 0.16 0  0.72 0.16 0  0.74 0.16 0  0.76 0.16 0  0.78 0.16 0  0.8 0.16 0  0.82 0.16 0  0.84 0.16 0  0.86 0.16 0  0.88 0.16 0  0.9 0.16 0  0.92 0.16 0  0.94 0.16 0  0.96 0.16 0  0.98 0.16 0  1 0.16 0  0 0.18 0  0.02 0.18 0  0.04 0.18 0  0.06 0.18 0  0.08 0.18 0  0.1 0.18 0  0.12 0.18 0  0.14 0.18 0  0.16 0.18 0  0.18 0.18 0  0.2 0.18 0  0.22 0.18 0  0.24 0.18 0  0.26 0.18 0  0.28 0.18 0  0.3 0.18 0  0.32 0.18 0  0.34 0.18 0  0.36 0.18 0  0.38 0.18 0  0.4 0.18 0  0.42 0.18 0  0.44 0.18 0  0.46 0.18 0  0.48 0.18 0  0.5 0.18 0  0.52 0.18 0  0.54 0.18 0  0.56 0.18 0  0.58 0.18 0  0.6 0.18 0  0.62 0.18 0  0.64 0.18 0  0.66 0.18 0  0.68 0.18 0  0.7 0.18 0  0.72 0.18 0  0.74 0.18 0  0.76 0.18 0  0.78 0.18 0  0.8 0.18 0  0.82 0.18 0  0.84 0.18 0  0.86 0.18 0  0.88 0.18 0  0.9 0.18 0  0.92 0.18 0  0.94 0.18 0  0.96 0.18 0  0.98 0.18 0  1 0.18 0  0 0.2 0  0.02 0.2 0  0.04 0.2 0  0.06 0.2 0  0.08 0.2 0  0.1 0.2 0  0.12 0.2 0  0.14 0.2 0  0.16 0.2 0  0.18 0.2 0  0.2 0.2 0  0.22 0.2 0  0.24 0.2 0  0.26 0.2 0  0.28 0.2 0  0.3 0.2 0  0.32 0.2 0  0.34 0.2 0  0.36 0.2 0  0.38 0.2 0  0.4 0.2 0  0.42 0.2 0  0.44 0.2 0  0.46 0.2 0  0.48 0.2 0  0.5 0.2 0  0.52 0.2 0  0.54 0.2 0  0.56 0.2 0  0.58 0.2 0  0.6 0.2 0  0.62 0.2 0  0.64 0.2 0  0.66 0.2 0  0.68 0.2 0  0.7 0.2 0  0.72 0.2 0  0.74 0.2 0  0.76 0.2 0  0.78 0.2 0  0.8 0.2 0  0.82 0.2 0  0.84 0.2 0  0.86 0.2 0  0.88 0.2 0  0.9 0.2 0  0.92 0.2 0  0.94 0.2 0  0.96 0.2 0  0.98 0.2 0  1 0.2 0  0 0.22 0  0.02 0.22 0  0.04 0.22 0  0.06 0.22 0  0.08 0.22 0  0.1 0.22 0  0.12 0.22 0  0.14 0.22 0  0.16 0.22 0  0.18 0.22 0  0.2 0.22 0  0.22 0.22 0  0.24 0.22 0  0.26 0.22 0  0.28 0.22 0  0.3 0.22 0  0.32 0.22 0  0.34 0.22 0  0.36 0.22 0  0.38 0.22 0  0.4 0.22 0  0.42 0.22 0  0.44 0.22 0  0.46 0.22 0  0.48 0.22 0  0.5 0.22 0  0.52 0.22 0  0.54 0.22 0  0.56 0.22 0  0.58 0.22 0  0.6 0.22 0  0.62 0.22 0  0.64 0.22 0  0.66 0.22 0  0.68 0.22 0  0.7 0.22 0  0.72 0.22 0  0.74 0.22 0  0.76 0.22 0  0.78 0.22 0  0.8 0.22 0  0.82 0.22 0  0.84 0.22 0  0.86 0.22 0  0.88 0.22 0  0.9 0.22 0  0.92 0.22 0  0.94 0.22 0  0.96 0.22 0  0.98 0.22 0  1 0.22 0  0 0.24 0  0.02 0.24 0  0.04 0.24 0  0.06 0.24 0  0.08 0.24 0  0.1 0.24 0  0.12 0.24 0  0.14 0.24 0  0.16 0.24 0  0.18 0.24 0  0.2 0.24 0  0.22 0.24 0  0.24 0.24 0  0.26 0.24 0  0.28 0.24 0  0.3 0.24 0  0.32 0.24 0  0.34 0.24 0  0.36 0.24 0  0.38 0.24 0  0.4 0.24 0  0.42 0.24 0  0.44 0.24 0  0.46 0.24 0  0.48 0.24 0  0.5 0.24 0  0.52 0.24 0  0.54 0.24 0  0.56 0.24 0  0.58 0.24 0  0.6 0.24 0  0.62 0.24 0  0.64 0.24 0  0.66 0.24 0  0.68 0.24 0  0.7 0.24 0  0.72 0.24 0  0.74 0.24 0  0.76 0.24 0  0.78 0.24 0  0.8 0.24 0  0.82 0.24 0  0.84 0.24 0  0.86 0.24 0  0.88 0.24 0  0.9 0.24 0  0.92 0.24 0  0.94 0.24 0  0.96 0.24 0  0.98 0.24 0  1 0.24 0  0 0.26 0  0.02 0.26 0  0.04 0.26 0  0.06 0.26 0  0.08 0.26 0  0.1 0.26 0  0.12 0.26 0  0.14 0.26 0  0.16 0.26 0  0.18 0.26 0  0.2 0.26 0  0.22 0.26 0  0.24 0.26 0  0.26 0.26 0  0.28 0.26 0  0.3 0.26 0  0.32 0.26 0  0.34 0.26 0  0.36 0.26 0  0.38 0.26 0  0.4 0.26 0  0.42 0.26 0  0.44 0.26 0  0.46 0.26 0  0.48 0.26 0  0.5 0.26 0  0.52 0.26 0  0.54 0.26 0  0.56 0.26 0  0.58 0.26 0  0.6 0.26 0  0.62 0.26 0  0.64 0.26 0  0.66 0.26 0  0.68 0.26 0  0.7 0.26 0  0.72 0.26 0  0.74 0.26 0  0.76 0.26 0  0.78 0.26 0  0.8 0.26 0  0.82 0.26 0  0.84 0.26 0  0.86 0.26 0  0.88 0.26 0  0.9 0.26 0  0.92 0.26 0  0.94 0.26 0  0.96 0.26 0  0.98 0.26 0  1 0.26 0  0 0.28 0  0.02 0.28 0  0.04 0.28 0  0.06 0.28 0  0.08 0.28 0  0.1 0.28 0  0.12 0.28 0  0.14 0.28 0  0.16 0.28 0  0.18 0.28 0  0.2 0.28 0  0.22 0.28 0  0.24 0.28 0  0.26 0.28 0  0.28 0.28 0  0.3 0.28 0  0.32 0.28 0  0.34 0.28 0  0.36 0.28 0  0.38 0.28 0  0.4 0.28 0  0.42 0.28 0  0.44 0.28 0  0.46 0.28 0  0.48 0.28 0  0.5 0.28 0  0.52 0.28 0  0.54 0.28 0  0.56 0.28 0  0.58 0.28 0  0.6 0.28 0  0.62 0.28 0  0.64 0.28 0  0.66 0.28 0  0.68 0.28 0  0.7 0.28 0  0.72 0.28 0  0.74 0.28 0  0.76 0.28 0  0.78 0.28 0  0.8 0.28 0  0.82 0.28 0  0.84 0.28 0  0.86 0.28 0  0.88 0.28 0  0.9 0.28 0  0.92 0.28 0  0.94 0.28 0  0.96 0.28 0  0.98 0.28 0  1 0.28 0  0 0.3 0  0.02 0.3 0  0.04 0.3 0  0.06 0.3 0  0.08 0.3 0  0.1 0.3 0  0.12 0.3 0  0.14 0.3 0  0.16 0.3 0  0.18 0.3 0  0.2 0.3 0  0.22 0.3 0  0.24 0.3 0  0.26 0.3 0  0.28 0.3 0  0.3 0.3 0  0.32 0.3 0  0.34 0.3 0  0.36 0.3 0  0.38 0.3 0  0.4 0.3 0  0.42 0.3 0  0.44 0.3 0  0.46 0.3 0  0.48 0.3 0  0.5 0.3 0  0.52 0.3 0 
[...]
<PointData  Vectors="u"> 
<DataArray  type="Float32"  Name="u"  NumberOfComponents="3" format="ascii">0.000000e+000 0.000000e+000 0.000000e+000  0.000000e+000 0.000000e+000 0.000000e+000  0.000000e+000 0.000000e+000 0.000000e+000  0.000000e+000 0.000000e+000 0.000000e+000  0.000000e+000 0.000000e+000 0.000000e+000  0.000000e+000 0.000000e+000 0.000000e+000  0.000000e+000 0.000000e+000 0.000000e+000  0.000000e+000 0.000000e+000 0.000000e+000  0.000000e+000 0.000000e+000 0.000000e+000  0.000000e+000 0.000000e+000 0.000000e+000  0.000000e+000 0.000000e+000 0.000000e+000  0.000000e+000 0.000000e+000 0.000000e+000  0.000000e+000 0.000000e+000 0.000000e+000  0.000000e+000 0.000000e+000 0.000000e+000  0.000000e+000 0.000000e+000 0.000000e+000  0.000000e+000 0.000000e+000 0.000000e+000  0.000000e+000 0.000000e+000 0.000000e+000  0.000000e+000 0.000000e+000 0.000000e+000  0.000000e+000 0.000000e+000 0.000000e+000  0.000000e+000 0.000000e+000 0.000000e+000  0.000000e+000 0.000000e+000 0.000000e+000  0.000000e+000 0.000000e+000 0.000000e+000  0.000000e+000 0.000000e+000 0.000000e+000  0.000000e+000 0.000000e+000 0.000000e+000  0.000000e+000 0.000000e+000 0.000000e+000  0.000000e+000 0.000000e+000 0.000000e+000  0.000000e+000 0.000000e+000 0.000000e+000  0.000000e+000 0.000000e+000 0.000000e+000  0.000000e+000 0.000000e+000 0.000000e+000  0.000000e+000 0.000000e+000 0.000000e+000  0.000000e+000 0.000000e+000 0.000000e+000  0.000000e+000 0.000000e+000 0.000000e+000  0.000000e+000 0.000000e+000 0.000000e+000  0.000000e+000 0.000000e+000 0.000000e+000  0.000000e+000 0.000000e+000 0.000000e+000  0.000000e+000 0.000000e+000 0.000000e+000  0.000000e+000 0.000000e+000 0.000000e+000  0.000000e+000 0.000000e+000 0.000000e+000  0.000000e+000 0.000000e+000 0.000000e+000  0.000000e+000 0.000000e+000 0.000000e+000  0.000000e+000 0.000000e+000 0.000000e+000  0.000000e+000 0.000000e+000 0.000000e+000  0.000000e+000 0.000000e+000 0.000000e+000  0.000000e+000 0.000000e+000 0.000000e+000  0.000000e+000 0.000000e+000 0.000000e+000  0.000000e+000 0.000000e+000 0.000000e+000  0.000000e+000 0.000000e+000 0.000000e+000  0.000000e+000 0.000000e+000 0.000000e+000  0.000000e+000 0.000000e+000 0.000000e+000  0.000000e+000 0.000000e+000 0.000000e+000  0.000000e+000 0.000000e+000 0.000000e+000  0.000000e+000 0.000000e+000 0.000000e+000  4.117966e-005 -4.108815e-005 0.000000e+000  7.885480e-005 -1.504792e-005 0.000000e+000  3.216619e-005 4.308058e-005 0.000000e+000  -1.349559e-004 1.115039e-004 0.000000e+000  -4.319524e-004 1.801554e-004 0.000000e+000  -8.549718e-004 2.439085e-004 0.000000e+000  -1.392674e-003 3.001472e-004 0.000000e+000  -2.029805e-003 3.475603e-004 0.000000e+000  -2.749105e-003 3.855531e-004 0.000000e+000  -3.532436e-003 4.139601e-004 0.000000e+000  -4.361492e-003 4.328906e-004 0.000000e+000  -5.218280e-003 4.426421e-004 0.000000e+000  -6.085447e-003 4.436471e-004 0.000000e+000  -6.946536e-003 4.364398e-004 0.000000e+000  -7.786162e-003 4.216300e-004 0.000000e+000  -8.590157e-003 3.998833e-004 0.000000e+000  -9.345662e-003 3.719024e-004 0.000000e+000  -1.004119e-002 3.384104e-004 0.000000e+000  -1.066667e-002 3.001361e-004 0.000000e+000  -1.121342e-002 2.578004e-004 0.000000e+000  -1.167415e-002 2.121064e-004 0.000000e+000  -1.204292e-002 1.637331e-004 0.000000e+000  -1.231509e-002 1.133319e-004 0.000000e+000  -1.248726e-002 6.152849e-005 0.000000e+000  -1.255727e-002 8.926496e-006 0.000000e+000  -1.252409e-002 -4.388496e-005 0.000000e+000  -1.238786e-002 -9.632243e-005 0.000000e+000  -1.214990e-002 -1.477977e-004 0.000000e+000  -1.181266e-002 -1.977068e-004 0.000000e+000  -1.137985e-002 -2.454182e-004 0.000000e+000  -1.085643e-002 -2.902624e-004 0.000000e+000  -1.024873e-002 -3.315231e-004 0.000000e+000  -9.564524e-003 -3.684310e-004 0.000000e+000  -8.813142e-003 -4.001638e-004 0.000000e+000  -8.005553e-003 -4.258512e-004 0.000000e+000  -7.154442e-003 -4.445892e-004 0.000000e+000  -6.274239e-003 -4.554623e-004 0.000000e+000  -5.381106e-003 -4.575755e-004 0.000000e+000  -4.492839e-003 -4.500957e-004 0.000000e+000  -3.628685e-003 -4.323053e-004 0.000000e+000  -2.809028e-003 -4.036703e-004 0.000000e+000  -2.054924e-003 -3.639308e-004 0.000000e+000  -1.387421e-003 -3.132317e-004 0.000000e+000  -8.265511e-004 -2.523266e-004 0.000000e+000  -3.898098e-004 -1.829295e-004 0.000000e+000  -8.976465e-005 -1.083836e-004 0.000000e+000  7.003946e-005 -3.500493e-005 0.000000e+000  1.024500e-004 2.510903e-005 0.000000e+000  4.816926e-005 4.806032e-005 0.000000e+000  0.000000e+000 0.000000e+000 0.000000e+000  0.000000e+000 0.000000e+000 0.000000e+000  1.590798e-005 -7.928339e-005 0.000000e+000  -3.107931e-005 3.268688e-005 0.000000e+000  -2.356444e-004 2.389970e-004 0.000000e+000  -6.436917e-004 4.816553e-004 0.000000e+000  -1.271083e-003 7.277237e-004 0.000000e+000  -2.113678e-003 9.587438e-004 0.000000e+000  -3.154666e-003 1.164412e-003 0.000000e+000  -4.369599e-003 1.339063e-003 0.000000e+000  -5.729557e-003 1.479808e-003 0.000000e+000  -7.203274e-003 1.585500e-003 0.000000e+000  -8.758558e-003 1.656150e-003 0.000000e+000  -1.036330e-002 1.692577e-003 0.000000e+000  -1.198619e-002 1.696187e-003 0.000000e+000  -1.359728e-002 1.668826e-003 0.000000e+000  -1.516838e-002 1.612673e-003 0.000000e+000  -1.667335e-002 1.530149e-003 0.000000e+000  -1.808837e-002 1.423845e-003 0.000000e+000  -1.939203e-002 1.296450e-003 0.000000e+000  -2.056548e-002 1.150692e-003 0.000000e+000  -2.159239e-002 9.892862e-004 0.000000e+000  -2.245899e-002 8.148969e-004 0.000000e+000  -2.315399e-002 6.301081e-004 0.000000e+000  -2.366852e-002 4.374136e-004 0.000000e+000  -2.399605e-002 2.392191e-004 0.000000e+000  -2.413233e-002 3.785719e-005 0.000000e+000  -2.407533e-002 -1.643875e-004 0.000000e+000  -2.382523e-002 -3.652467e-004 0.000000e+000  -2.338440e-002 -5.624319e-004 0.000000e+000  -2.275747e-002 -7.535947e-004 0.000000e+000  -2.195138e-002 -9.362881e-004 0.000000e+000  -2.097550e-002 -1.107930e-003 0.000000e+000  -1.984176e-002 -1.265772e-003 0.000000e+000  -1.856477e-002 -1.406888e-003 0.000000e+000  -1.716202e-002 -1.528170e-003 0.000000e+000  -1.565399e-002 -1.626360e-003 0.000000e+000  -1.406424e-002 -1.698107e-003 0.000000e+000  -1.241942e-002 -1.740055e-003 0.000000e+000  -1.074918e-002 -1.748977e-003 0.000000e+000  -9.085917e-003 -1.721936e-003 0.000000e+000  -7.464370e-003 -1.656501e-003 0.000000e+000  -5.920922e-003 -1.551017e-003 0.000000e+000  -4.492647e-003 -1.404963e-003 0.000000e+000  -3.215933e-003 -1.219458e-003 0.000000e+000  -2.124547e-003 -9.980055e-004 0.000000e+000  -1.246884e-003 -7.477153e-004 0.000000e+000  -6.019857e-004 -4.813704e-004 0.000000e+000  -1.936644e-004 -2.210984e-004 0.000000e+000  -2.315757e-006 -4.933244e-006 0.000000e+000  2.645482e-005 1.031565e-004 0.000000e+000  0.000000e+000 0.000000e+000 0.000000e+000  0.000000e+000 0.000000e+000 0.000000e+000  -4.092068e-005 -3.483537e-005 0.000000e+000  -2.341941e-004 2.363037e-004 0.000000e+000  -6.595270e-004 6.649398e-004 0.000000e+000  -1.357997e-003 1.158506e-003 0.000000e+000  -2.343925e-003 1.659438e-003 0.000000e+000  -3.610854e-003 2.132412e-003 0.000000e+000  -5.137759e-003 2.556014e-003 0.000000e+000  -6.893735e-003 2.917588e-003 0.000000e+000  -8.841536e-003 3.210117e-003 0.000000e+000  -1.094019e-002 3.430329e-003 0.000000e+000  -1.314692e-002 3.577539e-003 0.000000e+000  -1.541856e-002 3.652920e-003 0.000000e+000  -1.771263e-002 3.659020e-003 0.000000e+000  -1.998820e-002 3.599426e-003 0.000000e+000  -2.220648e-002 3.478517e-003 0.000000e+000  -2.433135e-002 3.301256e-003 0.000000e+000  -2.632971e-002 3.073020e-003 0.000000e+000  -2.817171e-002 2.799440e-003 0.000000e+000  -2.983093e-002 2.486271e-003 0.000000e+000  -3.128445e-002 2.139268e-003 0.000000e+000  -3.251281e-002 1.764103e-003 0.000000e+000  -3.350002e-002 1.366305e-003 0.000000e+000  -3.423343e-002 9.512279e-004 0.000000e+000  -3.470367e-002 5.240608e-004 0.000000e+000  -3.490456e-002 8.985263e-005 0.000000e+000  -3.483305e-002 -3.464356e-004 0.000000e+000  -3.448924e-002 -7.798670e-004 0.000000e+000  -3.387631e-002 -1.205456e-003 0.000000e+000  -3.300067e-002 -1.618092e-003 0.000000e+000  -3.187198e-002 -2.012460e-003 0.000000e+000  -3.050334e-002 -2.382975e-003 0.000000e+000  -2.891142e-002 -2.723722e-003 0.000000e+000  -2.711667e-002 -3.028434e-003 0.000000e+000  -2.514349e-002 -3.290505e-003 0.000000e+000  -2.302036e-002 -3.503057e-003 0.000000e+000  -2.077999e-002 -3.659072e-003 0.000000e+000  -1.845919e-002 -3.751603e-003 0.000000e+000  -1.609875e-002 -3.774056e-003 0.000000e+000  -1.374299e-002 -3.720560e-003 0.000000e+000  -1.143911e-002 -3.586437e-003 0.000000e+000  -9.236153e-003 -3.368789e-003 0.000000e+000  -7.183630e-003 -3.067264e-003 0.000000e+000  -5.329584e-003 -2.685083e-003 0.000000e+000  -3.718019e-003 -2.230517e-003 0.000000e+000  -2.385498e-003 -1.719088e-003 0.000000e+000  -1.356673e-003 -1.177013e-003 0.000000e+000  -6.385447e-004 -6.466465e-004 0.000000e+000  -2.136898e-004 -1.949112e-004 0.000000e+000  -3.166718e-005 7.430252e-005 0.000000e+000  0.000000e+000 0.000000e+000 0.000000e+000  0.000000e+000 0.000000e+000 0.000000e+000  -1.085439e-004 1.284614e-004 0.000000e+000  -4.763742e-004 6.430433e-004 0.000000e+000  -1.155572e-003 1.364688e-003 0.000000e+000  -2.173579e-003 2.173483e-003 0.000000e+000  -3.536855e-003 2.989669e-003 0.000000e+000  -5.233415e-003 3.760919e-003 0.000000e+000  -7.237063e-003 4.453498e-003 0.000000e+000  -9.511067e-003 5.046287e-003 0.000000e+000  -1.201141e-002 5.526826e-003 0.000000e+000  -1.468946e-002 5.888729e-003 0.000000e+000  -1.749403e-002 6.129977e-003 0.000000e+000  -2.037315e-002 6.251783e-003 0.000000e+000  -2.327532e-002 6.257810e-003 0.000000e+000  -2.615061e-002 6.153601e-003 0.000000e+000  -2.895151e-002 5.946143e-003 0.000000e+000  -3.163357e-002 5.643510e-003 0.000000e+000  -3.415590e-002 5.254550e-003 0.000000e+000  -3.648153e-002 4.788614e-003 0.000000e+000  -3.857763e-002 4.255304e-003 0.000000e+000  -4.041563e-002 3.664278e-003 0.000000e+000  -4.197121e-002 3.025081e-003 0.000000e+000  -4.322428e-002 2.347047e-003 0.000000e+000  -4.415889e-002 1.639248e-003 0.000000e+000  -4.476313e-002 9.104965e-004 0.000000e+000  -4.502903e-002 1.693964e-004 0.000000e+000  -4.495253e-002 -5.755752e-004 0.000000e+000  -4.453347e-002 -1.315966e-003 0.000000e+000  -4.377558e-002 -2.043232e-003 0.000000e+000  -4.268658e-002 -2.748618e-003 0.000000e+000  -4.127830e-002 -3.423039e-003 0.000000e+000  -3.956683e-002 -4.056971e-003 0.000000e+000  -3.757272e-002 -4.640373e-003 0.000000e+000  -3.532115e-002 -5.162645e-003 0.000000e+000  -3.284222e-002 -5.612671e-003 0.000000e+000  -3.017102e-002 -5.978939e-003 0.000000e+000  -2.734774e-002 -6.249785e-003 0.000000e+000  -2.441762e-002 -6.413755e-003 0.000000e+000  -2.143058e-002 -6.460102e-003 0.000000e+000  -1.844074e-002 -6.379430e-003 0.000000e+000  -1.550551e-002 -6.164487e-003 0.000000e+000  -1.268430e-002 -5.811153e-003 0.000000e+000  -1.003681e-002 -5.319680e-003 0.000000e+000  -7.620743e-003 -4.696300e-003 0.000000e+000  -5.488967e-003 -3.955402e-003 0.000000e+000  -3.685925e-003 -3.122573e-003 0.000000e+000  -2.243396e-003 -2.238959e-003 0.000000e+000  -1.175641e-003 -1.367549e-003 0.000000e+000  -4.744607e-004 -6.021041e-004 0.000000e+000  -1.040860e-004 -7.978597e-005 0.000000e+000  0.000000e+000 0.000000e+000 0.000000e+000  0.000000e+000 0.000000e+000 0.000000e+000  -1.782382e-004 4.224974e-004 0.000000e+000  -7.295222e-004 1.274287e-003 0.000000e+000  -1.676338e-003 2.361346e-003 0.000000e+000  -3.027804e-003 3.545103e-003 0.000000e+000  -4.778248e-003 4.728084e-003 0.000000e+000  -6.907208e-003 5.842882e-003 0.000000e+000  -9.381682e-003 6.843854e-003 0.000000e+000  -1.215866e-002 7.701077e-003 0.000000e+000  -1.518778e-002 8.396046e-003 0.000000e+000  -1.841369e-002 8.918653e-003 0.000000e+000  -2.177817e-002 9.265078e-003 0.000000e+000  -2.522188e-002 9.436300e-003 0.000000e+000  -2.868587e-002 9.437023e-003 0.000000e+000  -3.211274e-002 9.274861e-003 0.000000e+000  -3.544771e-002 8.959697e-003 0.000000e+000  -3.863937e-002 8.503146e-003 0.000000e+000  -4.164032e-002 7.918071e-003 0.000000e+000  -4.440763e-002 7.218164e-003 0.000000e+000  -4.690307e-002 6.417557e-003 0.000000e+000  -4.909332e-002 5.530509e-003 0.000000e+000  -5.094994e-002 4.571150e-003 0.000000e+000  -5.244938e-002 3.553321e-003 0.000000e+000  -5.357280e-002 2.490497e-003 0.000000e+000  -5.430604e-002 1.395801e-003 0.000000e+000  -5.463948e-002 2.820706e-004 0.000000e+000  -5.456799e-002 -8.380117e-004 0.000000e+000  -5.409096e-002 -1.951775e-003 0.000000e+000  -5.321235e-002 -3.046398e-003 0.000000e+000  -5.194074e-002 -4.108742e-003 0.000000e+000  -5.028951e-002 -5.125190e-003 0.000000e+000  -4.827697e-002 -6.081499e-003 0.000000e+000  -4.592665e-002 -6.962692e-003 0.000000e+000  -4.326747e-002 -7.753007e-003 0.000000e+000  -4.033399e-002 -8.435963e-003 0.000000e+000  -3.716661e-002 -8.994555e-003 0.000000e+000  -3.381164e-002 -9.411629e-003 0.000000e+000  -3.032117e-002 -9.670438e-003 0.000000e+000  -2.675274e-002 -9.755401e-003 0.000000e+000  -2.316868e-002 -9.653068e-003 0.000000e+000  -1.963507e-002 -9.353293e-003 0.000000e+000  -1.622026e-002 -8.850657e-003 0.000000e+000  -1.299299e-002 -8.146201e-003 0.000000e+000  -1.001992e-002 -7.249579e-003 0.000000e+000  -7.362738e-003 -6.181807e-003 0.000000e+000  -5.074740e-003 -4.978874e-003 0.000000e+000  -3.197104e-003 -3.696542e-003 0.000000e+000  -1.755081e-003 -2.416740e-003 0.000000e+000  -7.547770e-004 -1.256003e-003 0.000000e+000  -1.809748e-004 -3.764667e-004 0.000000e+000  0.000000e+000 0.000000e+000 0.000000e+000  0.000000e+000 0.000000e+000 0.000000e+000  -2.462290e-004 8.484421e-004 0.000000e+000  -9.800582e-004 2.135863e-003 0.000000e+000  -2.196560e-003 3.663299e-003 0.000000e+000  -3.885005e-003 5.281012e-003 0.000000e+000  -6.025248e-003 6.878601e-003 0.000000e+000  -8.586163e-003 8.376354e-003 0.000000e+000  -1.152636e-002 9.718114e-003 0.000000e+000  -1.479568e-002 1.086568e-002 0.000000e+000  -1.833718e-002 1.179455e-002 0.000000e+000  -2.208913e-002 1.249075e-002 0.000000e+000  -2.598689e-002 1.294846e-002 0.000000e+000  -2.996470e-002 1.316830e-002 0.000000e+000  -3.395713e-002 1.315600e-002 0.000000e+000  -3.790046e-002 1.292137e-002 0.000000e+000  -4.173372e-002 1.247742e-002 0.000000e+000  -4.539965e-002 1.183967e-002 0.000000e+000  -4.884538e-002 1.102547e-002 0.000000e+000  -5.202298e-002 1.005339e-002 0.000000e+000  -5.488977e-002 8.942646e-003 0.000000e+000  -5.740847e-002 7.712691e-003 0.000000e+000  -5.954725e-002 6.382809e-003 0.000000e+000  -6.127961e-002 4.971900e-003 0.000000e+000  -6.258427e-002 3.498374e-003 0.000000e+000  -6.344506e-002 1.980176e-003 0.000000e+000  -6.385075e-002 4.349018e-004 0.000000e+000  -6.379509e-002 -1.120030e-003 0.000000e+000  -6.327681e-002 -2.667172e-003 0.000000e+000  -6.229968e-002 -4.188841e-003 0.000000e+000  -6.087265e-002 -5.666912e-003 0.000000e+000  -5.901000e-002 -7.082612e-003 0.000000e+000  -5.673157e-002 -8.416333e-003 0.000000e+000  -5.406293e-002 -9.647486e-003 0.000000e+000  -5.103574e-002 -1.075444e-002 0.000000e+000  -4.768796e-002 -1.171461e-002 0.000000e+000  -4.406412e-002 -1.250473e-002 0.000000e+000  -4.021540e-002 -1.310136e-002 0.000000e+000  -3.619957e-002 -1.348171e-002 0.000000e+000  -3.208061e-002 -1.362466e-002 0.000000e+000  -2.792798e-002 -1.351212e-002 0.000000e+000  -2.381548e-002 -1.313058e-002 0.000000e+000  -1.981976e-002 -1.247302e-002 0.000000e+000  -1.601820e-002 -1.154107e-002 0.000000e+000  -1.248655e-002 -1.034766e-002 0.000000e+000  -9.296056e-003 -8.920173e-003 0.000000e+000  -6.510364e-003 -7.304350e-003 0.000000e+000  -4.182345e-003 -5.569168e-003 0.000000e+000  -2.351218e-003 -3.812846e-003 0.000000e+000  -1.040640e-003 -2.170160e-003 0.000000e+000  -2.582789e-004 -8.210444e-004 0.000000e+000  0.000000e+000 0.000000e+000 0.000000e+000  0.000000e+000 0.000000e+000 0.000000e+000  -3.111183e-004 1.402429e-003 0.000000e+000  -1.222108e-003 3.225163e-003 0.000000e+000  -2.703954e-003 5.270014e-003 0.000000e+000  -4.726460e-003 7.381505e-003 0.000000e+000  -7.254107e-003 9.440532e-003 0.000000e+000  -1.024376e-002 1.135802e-002 0.000000e+000  -1.364438e-002 1.306915e-002 0.000000e+000  -1.739780e-002 1.452853e-002 0.000000e+000  -2.143998e-002 1.570621e-002 0.000000e+000  -2.570271e-002 1.658459e-002 0.000000e+000  -3.011517e-002 1.715595e-002 0.000000e+000  -3.460562e-002 1.742064e-002 0.000000e+000  -3.910285e-002 1.738550e-002 0.000000e+000  -4.353749e-002 1.706272e-002 0.000000e+000  -4.784323e-002 1.646871e-002 0.000000e+000  -5.195780e-002 1.562326e-002 0.000000e+000  -5.582370e-002 1.454863e-002 0.000000e+000  -5.938885e-002 1.326874e-002 0.000000e+000  -6.260689e-002 1.180842e-002 0.000000e+000  -6.543736e-002 1.019280e-002 0.000000e+000  -6.784563e-002 8.446778e-003 0.000000e+000  -6.980283e-002 6.594712e-003 0.000000e+000  -7.128559e-002 4.660317e-003 0.000000e+000  -7.227589e-002 2.666706e-003 0.000000e+000  -7.276094e-002 6.365785e-004 0.000000e+000  -7.273321e-002 -1.407530e-003 0.000000e+000  -7.219043e-002 -3.442980e-003 0.000000e+000  -7.113578e-002 -5.446771e-003 0.000000e+000  -6.957805e-002 -7.395305e-003 0.000000e+000  -6.753177e-002 -9.264143e-003 0.000000e+000  -6.501751e-002 -1.102778e-002 0.000000e+000  -6.206210e-002 -1.265947e-002 0.000000e+000  -5.869894e-002 -1.413108e-002 0.000000e+000  -5.496841e-002 -1.541324e-002 0.000000e+000  -5.091812e-002 -1.647568e-002 0.000000e+000  -4.660314e-002 -1.728790e-002 0.000000e+000  -4.208597e-002 -1.782024e-002 0.000000e+000  -3.743618e-002 -1.804524e-002 0.000000e+000  -3.272972e-002 -1.793940e-002 0.000000e+000  -2.804772e-002 -1.748519e-002 0.000000e+000  -2.347492e-002 -1.667333e-002 0.000000e+000  -1.909761e-002 -1.550548e-002 0.000000e+000  -1.500122e-002 -1.399718e-002 0.000000e+000  -1.126769e-002 -1.218131e-002 0.000000e+000  -7.972592e-003 -1.011211e-002 0.000000e+000  -5.182523e-003 -7.869826e-003 0.000000e+000  -2.952850e-003 -5.566085e-003 0.000000e+000  -1.326581e-003 -3.349891e-003 0.000000e+000  -3.346755e-004 -1.413870e-003 0.000000e+000  0.000000e+000 0.000000e+000 0.000000e+000  0.000000e+000 0.000000e+000 0.000000e+000  -3.726146e-004 2.078821e-003 0.000000e+000  -1.453752e-003 4.535678e-003 0.000000e+000  -3.193607e-003 7.176021e-003 0.000000e+000  -5.543770e-003 9.842246e-003 0.000000e+000  -8.453360e-003 1.240988e-002 0.000000e+000  -1.186658e-002 1.478315e-002 0.000000e+000  -1.572195e-002 1.689056e-002 0.000000e+000  -1.995247e-002 1.868085e-002 0.000000e+000  -2.448655e-002 2.011950e-002 0.000000e+000  -2.924915e-002 2.118584e-002 0.000000e+000  -3.416329e-002 2.187066e-002 0.000000e+000  -3.915141e-002 2.217425e-002 0.000000e+000  -4.413685e-002 2.210485e-002 0.000000e+000  -4.904512e-002 2.167727e-002 0.000000e+000  -5.380512e-002 2.091168e-002 0.000000e+000  -5.835019e-002 1.983252e-002 0.000000e+000  -6.261889e-002 1.846741e-002 0.000000e+000  -6.655570e-002 1.684612e-002 0.000000e+000  -7.011131e-002 1.499956e-002 0.000000e+000  -7.324273e-002 1.295897e-002 0.000000e+000  -7.591320e-002 1.075521e-002 0.000000e+000  -7.809193e-002 8.418360e-003 0.000000e+000  -7.975378e-002 5.977633e-003 0.000000e+000  -8.087902e-002 3.461464e-003 0.000000e+000  -8.145321e-002 8.978198e-004 0.000000e+000  -8.146727e-002 -1.685428e-003 0.000000e+000  -8.091756e-002 -4.260162e-003 0.000000e+000  -7.980615e-002 -6.797717e-003 0.000000e+000  -7.814105e-002 -9.268627e-003 0.000000e+000  -7.593639e-002 -1.164237e-002 0.000000e+000  -7.321274e-002 -1.388712e-002 0.000000e+000  -6.999732e-002 -1.596946e-002 0.000000e+000  -6.632444e-002 -1.785423e-002 0.000000e+000  -6.223594e-002 -1.950464e-002 0.000000e+000  -5.778164e-002 -2.088263e-002 0.000000e+000  -5.301965e-002 -2.194978e-002 0.000000e+000  -4.801650e-002 -2.266860e-002 0.000000e+000  -4.284688e-002 -2.300432e-002 0.000000e+000  -3.759289e-002 -2.292707e-002 0.000000e+000  -3.234297e-002 -2.241431e-002 0.000000e+000  -2.719020e-002 -2.145362e-002 0.0