<?xml version="1.0"?>
<VTKFile type="UnstructuredGrid"  version="0.1"  >
<UnstructuredGrid>
<Piece  NumberOfPoints="525" NumberOfCells="924">
<Points>
<DataArray  type="Float64"  NumberOfComponents="3"  format="ascii">0 0 0  2.2 0 0  2.2 0.41 0  0 0.41 0  0.15 0.2 0  0.25 0.2 0  0.2 0.15 0  0.2 0.25 0  0.104762 0 0  0.209524 0 0  0.314286 0 0  0.419048 0 0  0.52381 0 0  0.628571 0 0  0.733333 0 0  0.838095 0 0  0.9428569999999999 0 0  1.04762 0 0  1.15238 0 0  1.25714 0 0  1.3619 0 0  1.46667 0 0  1.57143 0 0  1.67619 0 0  1.78095 0 0  1.88571 0 0  1.99048 0 0  2.09524 0 0  2.2 0.1025 0  2.2 0.205 0  2.2 0.3075 0  2.1 0.41 0  2 0.41 0  1.9 0.41 0  1.8 0.41 0  1.7 0.41 0  1.6 0.41 0  1.5 0.41 0  1.4 0.41 0  1.3 0.41 0  1.2 0.41 0  1.1 0.41 0  1 0.41 0  0.9 0.41 0  0.8 0.41 0  0.7 0.41 0  0.6 0.41 0  0.5 0.41 0  0.4 0.41 0  0.3 0.41 0  0.2 0.41 0  0.1 0.41 0  0 0.3075 0  0 0.205 0  0 0.1025 0  0.1566987973585577 0.2250001169958213 0  0.1749998830041787 0.2433012026414423 0  0.2250001169958213 0.2433012026414423 0  0.2433012026414423 0.2250001169958213 0  0.2433012026414423 0.1749998830041787 0  0.2250001169958213 0.1566987973585577 0  0.1749998830041787 0.1566987973585577 0  0.1566987973585577 0.1749998830041787 0  0.352033 0.262216 0  1.04579 0.252253 0  1.24065 0.243419 0  0.985775 0.171509 0  1.30324 0.187395 0  0.890988 0.190768 0  1.39085 0.202767 0  0.801464 0.204685 0  1.49904 0.204666 0  0.704267 0.202289 0  1.60238 0.204951 0  0.487789 0.19191 0  1.72935 0.219637 0  1.83335 0.187427 0  2.03359 0.193642 0  0.314663 0.307348 0  0.249039 0.333583 0  2.12147 0.253405 0  2.06373 0.0836837 0  0.0734726 0.267055 0  0.143989 0.0677174 0  0.0613613 0.33781 0  0.299628 0.236829 0  0.527114 0.295386 0  0.262384 0.26549 0  0.275777 0.18341 0  1.74578 0.330928 0  1.84001 0.302448 0  1.64998 0.313838 0  0.648421 0.302367 0  1.54544 0.308508 0  0.755686 0.306156 0  1.42668 0.314809 0  0.870524 0.298596 0  1.22553 0.112785 0  1.05603 0.147372 0  0.969346 0.329867 0  1.32527 0.276284 0  2.02914 0.29511 0  1.88168 0.119486 0  1.79545 0.104842 0  1.35688 0.0892539 0  1.69041 0.105324 0  0.914199 0.09555660000000001 0  1.58234 0.102923 0  0.61843 0.10815 0  1.47999 0.101161 0  0.725217 0.104273 0  0.821727 0.102306 0  1.96725 0.105778 0  0.418624 0.241547 0  0.135226 0.239087 0  1.14921 0.314841 0  0.404508 0.333259 0  0.590155 0.206269 0  2.12554 0.150731 0  1.93166 0.22436 0  0.104689 0.190046 0  0.267856 0.07447529999999999 0  0.269368 0.221581 0  0.434446 0.114927 0  1.0089 0.07933809999999999 0  0.953023 0.246698 0  1.25853 0.33355 0  1.05268 0.340828 0  2.1369 0.067383 0  0.522398 0.112537 0  1.3421 0.348929 0  0.215186 0.289473 0  0.203197 0.335348 0  1.13984 0.190728 0  1.93813 0.330504 0  1.10505 0.0883705 0  0.341988 0.0824728 0  0.253113 0.138035 0  0.291932 0.131907 0  0.203713 0.102439 0  0.150375 0.134668 0  0.151494 0.309119 0  0.354384 0.17896 0  0.06853670000000001 0.100776 0  0.424128 0.180088 0  0.474925 0.0568661 0  2.10843 0.347669 0  2.160735 0.2804525 0  2.160735 0.2292025 0  2.2 0.25625 0  2.079485 0.04184185 0  2.027105 0.04184185 0  2.04286 0 0  0.1767565 0.0338587 0  0.1243755 0.0338587 0  0.157143 0 0  0.08068065000000001 0.373905 0  0.03068065 0.373905 0  0.05 0.41 0  0.03068065 0.322655 0  0 0.35875 0  0.281851 0.3204655 0  0.2745195 0.3717915 0  0.3073315 0.358674 0  0.06741695 0.3024325 0  0.0367363 0.2872775 0  0.3071455 0.2720885 0  0.3258305 0.2495225 0  0.333348 0.284782 0  0.2557115 0.2995365 0  0.2885235 0.286419 0  2.075305 0.2742575 0  2.031365 0.244376 0  2.07753 0.2235235 0  2.01549 0.09473085000000001 0  1.978865 0.052889 0  2.00042 0.14971 0  2.04866 0.13866285 0  0.472869 0.2684665 0  0.4532065 0.2167285 0  0.5074514999999999 0.243648 0  2.16277 0.1778655 0  2.16277 0.1266155 0  2.2 0.15375 0  1.90667 0.171923 0  1.882505 0.2058935 0  1.857515 0.1534565 0  1.885835 0.263404 0  1.83668 0.2449375 0  0.6042925 0.1572095 0  0.647211 0.204279 0  0.6613485 0.1552195 0  0.3595855 0.3203035 0  0.3782705 0.2977375 0  0.155113 0.241194 0  0.1459625 0.2320435 0  0.1646446609406726 0.2353553390593274 0  0.259539 0.179205 0  0.2628885 0.191705 0  0.2482962819455563 0.1870590127797247 0  0.281006 0.2511595 0  1.0209025 0.1594405 0  1.05091 0.1998125 0  1.0157825 0.211881 0  1.264385 0.15009 0  1.23309 0.178102 0  1.271945 0.215407 0  1.291205 0.10101945 0  1.33006 0.13832445 0  0.928528 0.0477783 0  0.876147 0.0477783 0  0.890476 0 0  0.9025935 0.1431623 0  0.9499869999999999 0.1335328 0  0.9383815 0.1811385 0  0.867963 0.0989313 0  0.8563575 0.146537 0  0.8299110000000001 0.051153 0  1.411775 0.04462695 0  1.35939 0.04462695 0  1.414285 0 0  1.373865 0.14601045 0  1.347045 0.195081 0  1.418435 0.09520745 0  1.43542 0.151964 0  1.47333 0.0505805 0  0.7775300000000001 0.051153 0  0.785714 0 0  0.8115954999999999 0.1534955 0  0.8462259999999999 0.1977265 0  0.7734719999999999 0.1032895 0  0.7633405 0.154479 0  0.729275 0.0521365 0  1.52571 0.0505805 0  1.51905 0 0  1.489515 0.1529135 0  1.444945 0.2037165 0  1.531165 0.102042 0  1.54069 0.1537945 0  1.576885 0.0514615 0  1.9804 0.259735 0  1.982625 0.209001 0  1.820005 0.356224 0  1.870005 0.356224 0  1.85 0.41 0  1.78468 0.2610425 0  1.78135 0.203532 0  1.72289 0.370464 0  1.77289 0.370464 0  1.75 0.41 0  1.792895 0.316688 0  1.737565 0.2752825 0  1.62499 0.361919 0  1.67499 0.361919 0  1.65 0.41 0  1.69788 0.322383 0  1.689665 0.2667375 0  1.62618 0.2593945 0  1.665865 0.212294 0  0.6242105 0.3561835 0  0.6742105 0.3561835 0  0.6499999999999999 0.41 0  0.6192880000000001 0.254318 0  0.6763440000000001 0.252328 0  1.52272 0.359254 0  1.57272 0.359254 0  1.55 0.41 0  1.59771 0.311173 0  1.57391 0.2567295 0  1.52224 0.256587 0  1.55071 0.2048085 0  0.727843 0.358078 0  0.7778430000000001 0.358078 0  0.75 0.41 0  0.7020535 0.3042615 0  0.7299765 0.2542225 0  0.778575 0.2554205 0  0.7528655 0.203487 0  1.41334 0.3624045 0  1.46334 0.3624045 0  1.45 0.41 0  1.48606 0.3116585 0  1.46286 0.2597375 0  1.408765 0.258788 0  0.8352619999999999 0.354298 0  0.885262 0.354298 0  0.8500000000000001 0.41 0  0.813105 0.302376 0  0.8359939999999999 0.2516405 0  0.880756 0.244682 0  0.9346730000000001 0.3699335 0  0.984673 0.3699335 0  0.95 0.41 0  0.9199349999999999 0.3142315 0  0.676894 0.0521365 0  0.680952 0 0  0.714742 0.153281 0  0.6718235 0.1062115 0  0.6235005 0.054075 0  1.629265 0.0514615 0  1.62381 0 0  1.59236 0.153937 0  1.636375 0.1041235 0  1.646395 0.1551375 0  1.6833 0.052662 0  1.73568 0.052662 0  1.72857 0 0  1.70988 0.1624805 0  1.74293 0.105083 0  1.7624 0.1622395 0  1.7882 0.052421 0  1.84058 0.052421 0  1.83333 0 0  1.8144 0.1461345 0  1.838565 0.112164 0  1.883695 0.059743 0  1.124605 0.3624205 0  1.174605 0.3624205 0  1.15 0.41 0  1.314255 0.2318395 0  1.28296 0.2598515 0  1.35806 0.2395255 0  1.375975 0.2955465 0  1.92648 0.052889 0  1.938095 0 0  1.924465 0.112632 0  1.949455 0.165069 0  0.352254 0.3716295 0  0.402254 0.3716295 0  0.35 0.41 0  0.513557 0.352693 0  0.563557 0.352693 0  0.55 0.41 0  0.5877675 0.2988765 0  0.5586344999999999 0.2508275 0  0.538972 0.1990895 0  0.452254 0.3716295 0  0.45 0.41 0  0.465811 0.3143225 0  0.411566 0.287403 0  0.3853285 0.2518815 0  0.1199575 0.2145665 0  0.0890808 0.2285505 0  0.1043493 0.253071 0  0.2245195 0.3717915 0  0.25 0.41 0  0.291071 0.03723765 0  0.23869 0.03723765 0  0.261905 0 0  0.265876 0.2435355 0  0.2563345 0.2232905 0  0.2528425 0.245245 0  0.284498 0.229205 0  1.032465 0.11335505 0  0.9973375 0.12542355 0  0.9615494999999999 0.08744735000000001 0  0.9220055 0.218733 0  0.9693989999999999 0.2091035 0  0.9611845 0.2882825 0  0.9117735 0.272647 0  1.229265 0.371775 0  1.279265 0.371775 0  1.25 0.41 0  1.02634 0.375414 0  1.07634 0.375414 0  1.05 0.41 0  1.011013 0.3353475 0  2.11607 0.0336915 0  2.16845 0.0336915 0  2.14762 0 0  2.16845 0.0849415 0  2.2 0.05125 0  2.100315 0.07553335 0  0.5562765000000001 0.159403 0  0.570414 0.1103435 0  0.5050935 0.1522235 0  1.32105 0.3794645 0  1.37105 0.3794645 0  1.35 0.41 0  1.333685 0.3126065 0  1.38439 0.331869 0  0.9994065 0.2494755 0  1.007568 0.29106 0  1.300315 0.3412395 0  1.2919 0.304917 0  2.13122 0.109057 0  2.094635 0.11720735 0  0.2725725 0.2024955 0  0.259684 0.2107905 0  0.2482962819455563 0.2129409872202754 0  0.2877025 0.2101195 0  2.123505 0.202068 0  2.079565 0.1721865 0  1.02826 0.03966905 0  0.9758784999999999 0.03966905 0  0.9952384999999999 0 0  1.049235 0.2965405 0  1.100945 0.3278345 0  1.0975 0.283547 0  0.5711200000000001 0.054075 0  0.5761905 0 0  0.523104 0.0562685 0  1.24959 0.2884845 0  1.20387 0.3241955 0  1.19493 0.27913 0  0.238785 0.2774815 0  0.2321125 0.311528 0  0.226118 0.3344655 0  0.2015985 0.3726739999999999 0  1.144525 0.2527845 0  1.190245 0.2170735 0  1.092815 0.2214905 0  0.2091915 0.3124105 0  0.220093 0.266387 0  0.243692 0.2543955 0  0.2353553390593274 0.2353553390593274 0  0.478422 0.113732 0  0.4611175 0.1534185 0  1.919065 0.370252 0  1.969065 0.370252 0  1.95 0.41 0  1.983635 0.312807 0  2.01457 0.352555 0  1.88907 0.316476 0  1.934895 0.277432 0  1.182685 0.1517565 0  1.097935 0.16905 0  1.128715 0.04418525 0  1.076335 0.04418525 0  1.1 0 0  1.056975 0.08385429999999999 0  1.08054 0.11787125 0  1.122445 0.13954925 0  1.16529 0.10057775 0  0.304922 0.07847404999999999 0  0.328137 0.0412364 0  0.380518 0.0412364 0  0.366667 0 0  0.388217 0.09869990000000001 0  0.426747 0.0574635 0  0.31696 0.1071899 0  0.279894 0.10319115 0  0.2725225 0.134971 0  0.2604845 0.10625515 0  0.228413 0.120237 0  0.2143565 0.129569 0  0.2390565 0.147367 0  1.30701 0.04462695 0  1.30952 0 0  1.241335 0.0563925 0  0.2357845 0.08845715 0  1.188955 0.0563925 0  1.20476 0 0  0.2066185 0.0512195 0  0.173851 0.08507819999999999 0  0.0367363 0.2360275 0  0 0.25625 0  0.264445 0.1607225 0  0.248207 0.1565175 0  0.2353553390593274 0.1646446609406726 0  0.2838545 0.1576585 0  0.130694 0.182523 0  0.1273445 0.195023 0  0.1517037180544437 0.1870590127797247 0  0.127532 0.162357 0  0.153537 0.154834 0  0.0523445 0.197523 0  0
[...]
<PointData  Vectors="u"> 
<DataArray  type="Float64"  Name="u"  NumberOfComponents="3" format="ascii">1.8988880387989470e-15 2.6065627910895279e-15 0.0000000000000000e+00  0.0000000000000000e+00 0.0000000000000000e+00 0.0000000000000000e+00  0.0000000000000000e+00 0.0000000000000000e+00 0.0000000000000000e+00  1.4865708897389480e-15 7.1339203919498822e-16 0.0000000000000000e+00  0.0000000000000000e+00 0.0000000000000000e+00 0.0000000000000000e+00  0.0000000000000000e+00 0.0000000000000000e+00 0.0000000000000000e+00  0.0000000000000000e+00 0.0000000000000000e+00 0.0000000000000000e+00  0.0000000000000000e+00 0.0000000000000000e+00 0.0000000000000000e+00  0.0000000000000000e+00 0.0000000000000000e+00 0.0000000000000000e+00  0.0000000000000000e+00 -6.0810848438966434e-16 0.0000000000000000e+00  0.0000000000000000e+00 6.9933140275158954e-16 0.0000000000000000e+00  0.0000000000000000e+00 -1.2073368104922636e-15 0.0000000000000000e+00  0.0000000000000000e+00 -5.0401887085344639e-16 0.0000000000000000e+00  0.0000000000000000e+00 0.0000000000000000e+00 0.0000000000000000e+00  0.0000000000000000e+00 -8.8171249330637798e-16 0.0000000000000000e+00  0.0000000000000000e+00 7.4602331643254994e-16 0.0000000000000000e+00  0.0000000000000000e+00 6.8181558891670436e-16 0.0000000000000000e+00  0.0000000000000000e+00 0.0000000000000000e+00 0.0000000000000000e+00  0.0000000000000000e+00 0.0000000000000000e+00 0.0000000000000000e+00  0.0000000000000000e+00 0.0000000000000000e+00 0.0000000000000000e+00  0.0000000000000000e+00 0.0000000000000000e+00 0.0000000000000000e+00  -3.6468529357206722e-16 0.0000000000000000e+00 0.0000000000000000e+00  -7.6249038208944712e-16 0.0000000000000000e+00 0.0000000000000000e+00  0.0000000000000000e+00 0.0000000000000000e+00 0.0000000000000000e+00  0.0000000000000000e+00 0.0000000000000000e+00 0.0000000000000000e+00  0.0000000000000000e+00 -7.0128975304948476e-16 0.0000000000000000e+00  0.0000000000000000e+00 0.0000000000000000e+00 0.0000000000000000e+00  0.0000000000000000e+00 0.0000000000000000e+00 0.0000000000000000e+00  1.1250000003585559e+00 3.0451168908813449e-10 0.0000000000000000e+00  1.5000000000001559e+00 4.9434590393311900e-10 0.0000000000000000e+00  1.1249999996416788e+00 3.0407407326374373e-10 0.0000000000000000e+00  3.6547565028493170e-16 0.0000000000000000e+00 0.0000000000000000e+00  0.0000000000000000e+00 0.0000000000000000e+00 0.0000000000000000e+00  0.0000000000000000e+00 0.0000000000000000e+00 0.0000000000000000e+00  0.0000000000000000e+00 3.7370138823663519e-16 0.0000000000000000e+00  0.0000000000000000e+00 0.0000000000000000e+00 0.0000000000000000e+00  0.0000000000000000e+00 0.0000000000000000e+00 0.0000000000000000e+00  0.0000000000000000e+00 0.0000000000000000e+00 0.0000000000000000e+00  0.0000000000000000e+00 0.0000000000000000e+00 0.0000000000000000e+00  0.0000000000000000e+00 0.0000000000000000e+00 0.0000000000000000e+00  0.0000000000000000e+00 4.2837108871547210e-16 0.0000000000000000e+00  0.0000000000000000e+00 0.0000000000000000e+00 0.0000000000000000e+00  0.0000000000000000e+00 -8.5905842504914819e-16 0.0000000000000000e+00  0.0000000000000000e+00 -6.6546508022098828e-16 0.0000000000000000e+00  0.0000000000000000e+00 9.0242971906598238e-16 0.0000000000000000e+00  0.0000000000000000e+00 -9.5960299683934389e-16 0.0000000000000000e+00  0.0000000000000000e+00 0.0000000000000000e+00 0.0000000000000000e+00  0.0000000000000000e+00 0.0000000000000000e+00 0.0000000000000000e+00  0.0000000000000000e+00 0.0000000000000000e+00 0.0000000000000000e+00  0.0000000000000000e+00 9.4732273791140011e-16 0.0000000000000000e+00  0.0000000000000000e+00 -9.5147217601827572e-16 0.0000000000000000e+00  0.0000000000000000e+00 0.0000000000000000e+00 0.0000000000000000e+00  1.1250000000000000e+00 0.0000000000000000e+00 0.0000000000000000e+00  1.5000000000000022e+00 0.0000000000000000e+00 0.0000000000000000e+00  1.1250000000000016e+00 0.0000000000000000e+00 0.0000000000000000e+00  0.0000000000000000e+00 0.0000000000000000e+00 0.0000000000000000e+00  1.5959255978378471e-15 9.9745332404339952e-16 0.0000000000000000e+00  0.0000000000000000e+00 0.0000000000000000e+00 0.0000000000000000e+00  0.0000000000000000e+00 0.0000000000000000e+00 0.0000000000000000e+00  0.0000000000000000e+00 0.0000000000000000e+00 0.0000000000000000e+00  -1.4872488761894029e-15 3.5662258142146907e-16 0.0000000000000000e+00  3.0282444019197615e-16 0.0000000000000000e+00 0.0000000000000000e+00  0.0000000000000000e+00 0.0000000000000000e+00 0.0000000000000000e+00  1.2548604333346223e+00 -3.2691143623029162e-01 0.0000000000000000e+00  1.4202797619230827e+00 4.9574207813526007e-05 0.0000000000000000e+00  1.4473151232507515e+00 5.3815462462575907e-06 0.0000000000000000e+00  1.4599981057531699e+00 7.7359892552063145e-05 0.0000000000000000e+00  1.4889375274683141e+00 1.9647579411620357e-06 0.0000000000000000e+00  1.4928171966302397e+00 9.8171659180202182e-05 0.0000000000000000e+00  1.4998220107405504e+00 4.0033955986672809e-08 0.0000000000000000e+00  1.5000918806990546e+00 -8.2661357312724534e-05 0.0000000000000000e+00  1.4999960166091324e+00 -2.9910230175263685e-07 0.0000000000000000e+00  1.4999141047499702e+00 -1.1684999891247716e-03 0.0000000000000000e+00  1.4999999142680192e+00 -1.7362412349037910e-07 0.0000000000000000e+00  1.4591284584240278e+00 -8.1705233157007146e-03 0.0000000000000000e+00  1.4923530657194584e+00 -4.9480829275129847e-08 0.0000000000000000e+00  1.4889776195605600e+00 -1.1719068158308098e-08 0.0000000000000000e+00  1.4953954493972632e+00 7.5996301058438015e-10 0.0000000000000000e+00  1.4284773735189382e+00 -4.2929108083548345e-01 0.0000000000000000e+00  1.7554021528708303e+00 -2.7565500192275133e-01 0.0000000000000000e+00  1.4163696358126117e+00 5.9013914736177767e-10 0.0000000000000000e+00  9.7468252404223588e-01 3.7043296655028774e-10 0.0000000000000000e+00  1.2752459651701427e+00 5.6412255214200591e-01 0.0000000000000000e+00  1.5558905033272095e+00 -2.9607547142630058e-01 0.0000000000000000e+00  1.0826457839467836e+00 2.9463692509575590e-01 0.0000000000000000e+00  8.2734224824792701e-01 -4.1543651985672736e-01 0.0000000000000000e+00  1.2183932576799510e+00 -2.3618292999197984e-02 0.0000000000000000e+00  1.1314578158333619e+00 -6.1008988990082869e-01 0.0000000000000000e+00  3.4046997110542015e-01 2.2146098036343526e-01 0.0000000000000000e+00  9.3398474650584351e-01 -1.3840350976428381e-08 0.0000000000000000e+00  1.1610548733850130e+00 -5.5558204592028741e-09 0.0000000000000000e+00  1.0771906650911673e+00 -5.6456736173114598e-08 0.0000000000000000e+00  1.1629139099555947e+00 -2.1441706145014700e-03 0.0000000000000000e+00  1.1175883381086211e+00 -1.4135960176536364e-07 0.0000000000000000e+00  1.1346718231818513e+00 -7.8661067304433698e-05 0.0000000000000000e+00  1.0696131962642881e+00 -1.4538605788425131e-07 0.0000000000000000e+00  1.1871708583068292e+00 9.7921133531249358e-05 0.0000000000000000e+00  1.1964831746448914e+00 4.2613632328411046e-06 0.0000000000000000e+00  1.3814888528091476e+00 4.1361326439542768e-05 0.0000000000000000e+00  9.4340109588091625e-01 4.0732981343126121e-05 0.0000000000000000e+00  1.3186291136408097e+00 8.3021247735869744e-07 0.0000000000000000e+00  1.2101792219879604e+00 5.4936855507310168e-10 0.0000000000000000e+00  1.2389894989940493e+00 -2.8842806608670535e-09 0.0000000000000000e+00  1.1419408023947073e+00 -1.1023557049210513e-08 0.0000000000000000e+00  1.0218142172157263e+00 1.1227030020225546e-07 0.0000000000000000e+00  1.1453787198247714e+00 -4.2403850261561113e-08 0.0000000000000000e+00  1.0725889540926385e+00 4.6623485769808836e-05 0.0000000000000000e+00  1.1280885837724801e+00 -1.1206573147286693e-07 0.0000000000000000e+00  1.1638627945757167e+00 -6.5246000952579508e-04 0.0000000000000000e+00  1.1151380936900295e+00 -1.8167298823795940e-07 0.0000000000000000e+00  1.1377621210054785e+00 -4.6507822147483972e-04 0.0000000000000000e+00  1.1237247586824028e+00 -3.5084839405383314e-05 0.0000000000000000e+00  1.1486018353065857e+00 1.6579161670137689e-10 0.0000000000000000e+00  1.3678842610952879e+00 -1.0938853861082995e-01 0.0000000000000000e+00  6.0207975530958213e-01 5.4905871359052516e-01 0.0000000000000000e+00  1.0693518166540708e+00 9.1098252840530601e-06 0.0000000000000000e+00  1.0377335514964217e+00 -1.1485474341599176e-01 0.0000000000000000e+00  1.4973430758541832e+00 -6.1078565076720997e-03 0.0000000000000000e+00  1.3948795592437151e+00 5.6276305678407668e-10 0.0000000000000000e+00  1.4866219058211358e+00 -1.2448382247876591e-09 0.0000000000000000e+00  6.3097568000572146e-01 -1.0436443994482747e-01 0.0000000000000000e+00  1.5427849498544151e+00 3.3018040020285122e-01 0.0000000000000000e+00  3.1529531616239870e-01 -2.9260550236863453e-01 0.0000000000000000e+00  1.2047671869335808e+00 7.8248923164550108e-02 0.0000000000000000e+00  9.3642689174970883e-01 2.5977660760397432e-05 0.0000000000000000e+00  1.4378957936744006e+00 9.6748045154960787e-05 0.0000000000000000e+00  9.1016795869775013e-01 1.2697752100545857e-06 0.0000000000000000e+00  8.4145833600692110e-01 1.5625104175190972e-05 0.0000000000000000e+00  8.2402955358118979e-01 1.9804582135152194e-10 0.0000000000000000e+00  1.1912486146214214e+00 1.0479836000879816e-02 0.0000000000000000e+00  7.6059923261526075e-01 8.0767123460339346e-08 0.0000000000000000e+00  1.7045493997909422e+00 -1.9356186359376101e-01 0.0000000000000000e+00  1.8947352073265737e+00 -1.1312267311068868e-02 0.0000000000000000e+00  1.4927321747064470e+00 2.1570315095302591e-05 0.0000000000000000e+00  9.3778986123735975e-01 -9.7602013483540935e-11 0.0000000000000000e+00  1.0145057568826135e+00 1.3249138111050721e-05 0.0000000000000000e+00  1.1809689115234523e+00 2.5566115854097143e-01 0.0000000000000000e+00  1.0043728305288675e+00 5.5264721058533461e-01 0.0000000000000000e+00  1.1462639088476334e+00 5.4738520535009627e-01 0.0000000000000000e+00  1.7654927487597851e+00 3.6676428536281301e-02 0.0000000000000000e+00  1.0985061835118786e+00 -5.7248128709146473e-01 0.0000000000000000e+00  1.7766835052626699e+00 4.6630259509665517e-01 0.0000000000000000e+00  1.1100841429442549e+00 1.1005439706308683e-01 0.0000000000000000e+00  1.2391761681923441e+00 -4.2155246115446143e-01 0.0000000000000000e+00  1.3646203586427310e+00 2.3099745251311605e-02 0.0000000000000000e+00  7.3382668096067893e-01 1.6871813597601749e-02 0.0000000000000000e+00  7.7348803404960120e-01 1.9718386348452264e-10 0.0000000000000000e+00  1.2967966769061898e+00 4.1870778101347640e-10 0.0000000000000000e+00  1.4790924088861579e+00 5.3006408534771822e-10 0.0000000000000000e+00  1.4062499997443112e+00 4.4233403667563734e-10 0.0000000000000000e+00  5.4983050945774326e-01 1.1463210001819620e-10 0.0000000000000000e+00  5.4983050972898662e-01 1.3540546855773417e-10 0.0000000000000000e+00  0.0000000000000000e+00 4.6823796964603955e-16 0.0000000000000000e+00  1.1565501316786542e+00 -4.9532496853857230e-02 0.0000000000000000e+00  9.3262946517825174e-01 -1.0775994295040812e-01 0.0000000000000000e+00  0.0000000000000000e+00 7.0311630888142704e-16 0.0000000000000000e+00  7.4038267144702585e-01 1.1424612970349794e-01 0.0000000000000000e+00  5.2793073302561344e-01 5.4629966039887012e-02 0.0000000000000000e+00  0.0000000000000000e+00 -6.5763173162497151e-16 0.0000000000000000e+00  1.0639876737441680e+00 2.3038479913966914e-01 0.0000000000000000e+00  6.5624999999999922e-01 0.0000000000000000e+00 0.0000000000000000e+00  1.6005875089066741e+00 -4.1480000109037607e-01 0.0000000000000000e+00  1.0904972267569899e+00 -1.0842240543286444e-01 0.0000000000000000e+00  1.1407960053039452e+00 -1.7077183150970693e-01 0.0000000000000000e+00  1.3080082123725860e+00 4.9473999338907465e-01 0.0000000000000000e+00  1.2801138118873079e+00 3.5771085963679827e-01 0.0000000000000000e+00  1.2507528571853697e+00 -5.3232143975365209e-01 0.0000000000000000e+00  1.1057157251854044e+00 -3.9279644713337641e-01 0.0000000000000000e+00  1.3244553065807887e+00 -4.1805553189142974e-01 0.0000000000000000e+00  1.6770503956845431e+00 -4.9625399271824122e-01 0.0000000000000000e+00  1.4143816521520063e+00 -5.7577383496427137e-01 0.0000000000000000e+00  1.3287947176639614e+00 6.2991238401189856e-10 0.0000000000000000e+00  1.4446590342071748e+00 7.1875831025919345e-10 0.0000000000000000e+00  1.4877530020799721e+00 7.6432307492897926e-10 0.0000000000000000e+00  1.0659981413487631e+00 4.2936609386894359e-10 0.0000000000000000e+00  6.7414314272603915e-01 1.5286401708837188e-10 0.0000000000000000e+00  1.3908869454955031e+00 5.1528797553565266e-10 0.0000000000000000e+00  1.3429285860592337e+00 6.6576755089520579e-10 0.0000000000000000e+00  1.3536588352665821e+00 -6.1413828825025163e-02 0.0000000000000000e+00  1.4321006173178865e+00 -3.9319615521052710e-02 0.0000000000000000e+00  1.4360317488665153e+00 -3.0530233447070086e-02 0.0000000000000000e+00  1.4737198898878785e+00 5.2259474019510365e-10 0.0000000000000000e+00  1.2806973291702834e+00 4.0648699461344502e-10 0.0000000000000000e+00  1.4062500002560805e+00 4.4246206942916391e-10 0.0000000000000000e+00  1.4609486760339581e+00 -2.5465447192767225e-09 0.0000000000000000e+00  1.4999715047450539e+00 -4.8426872385758320e-09 0.0000000000000000e+00  1.4051731435103441e+00 -6.6198360281587258e-09 0.0000000000000000e+00  1.3782500699148623e+00 -3.5320267620528632e-09 0.0000000000000000e+00  1.4430694640330666e+00 -1.0259168875174533e-08 0.0000000000000000e+00  1.4160901803201713e+00 -2.1229114692778461e-03 0.0000000000000000e+00  1.4997531560960444e+00 -2.8468152637473360e-03 0.0000000000000000e+00  1.4110201833076519e+00 -1.5903778638105765e-03 0.0000000000000000e+00  1.2401697877504660e+00 -2.4623501543316889e-01 0.0000000000000000e+00  1.2786530323540419e+00 -2.3891453923443784e-01 0.0000000000000000e+00  4.0779906789861492e-01 3.6475843777789080e-01 0.0000000000000000e+00  3.1666467535076365e-01 3.7846252961956089e-01 0.0000000000000000e+00  0.0000000000000000e+00 0.0000000000000000e+00 0.0000000000000000e+00  1.7804905599616816e-01 2.3173368710809800e-01 0.0000000000000000e+00  1.1262792107849200e-01 9.3812198649285236e-02 0.0000000000000000e+00  0.0000000000000000e+00 -4.3291460923080454e-16 0.0000000000000000e+00  9.0801325418662626e-01 -5.6490289986273723e-01 0.0000000000000000e+00  1.4259431875898319e+00 5.8441532358231999e-05 0.0000000000000000e+00  1.4990427725604005e+00 5.2258268601865285e-05 0.0000000000000000e+00  1.4983066451916618e+00 6.9209544646829408e-05 0.0000000000000000e+00  1.3923825413615194e+00 3.3611351385796878e-06 0.0000000000000000e+00  1.4741770117101818e+00 6.3281465937933856e-06 0.0000000000000000e+00  1.4961340491099910e+00 3.5475160727545050e-06 0.0000000000000000e+00  1.1140887972685831e+00 1.1478820550025513e-06 0.0000000000000000e+00  1.3413219218924226e+00 7.8724935674106167e-07 0.0000000000000000e+00  6.1779659675131859e-01 1.5846680852858942e-05 0.0000000000000000e+00  6.1782355011364265e-01 1.2067794290321307e-05 0.0000000000000000e+00  0.0000000000000000e+00 7.5467416776754428e-16 0.0000000000000000e+00  1.3636139534037486e+00 7.5520736099837451e-05 0.0000000000000000e+00  1.3177737754110754e+00 7.0783131788944886e-05 0.0000000000000000e+00  1.4797173962776939e+00 9.7204553010413896e-05 0.0000000000000000e+00  1.0985750215775352e+00 2.9792777649096365e-05 0.0000000000000000e+00  1.3781288904310967e+00 3.7561844379546211e-05 0.0000000000000000e+00  6.5530376041025340e-01 -5.0129009475198352e-06 0.0000000000000000e+00  5.8199191125628580e-01 -5.0436790517495477e-08 0.0000000000000000e+00  5.8199186996426922e-01 3.9324555797698958e-09 0.0000000000000000e+00  0.0000000000000000e+00 0.0000000000000000e+00 0.0000000000000000e+00  1.3757962765412461e+00 1.5427998151049073e-07 0.0000000000000000e+00  1.4964882573950566e+00 6.8164819574541418e-07 0.0000000000000000e+00  1.0697412088262874e+00 -1.2985253713464105e-07 0.0000000000000000e+00  1.3996017314020226e+00 -2.1859116912050590e-07 0.0000000000000000e+00  6.4888551800052019e-01 -6.7440503859995488e-08 0.0000000000000000e+00  6.5525070406420516e-01 -5.7428426819243997e-05 0.0000000000000000e+00  0.0000000000000000e+00 -1.5310730635068337e-15 0.0000000000000000e+00  1.4054537191809657e+00 -7.4710224475024934e-05 0.0000000000000000e+00  1.4981744017982150e+00 5.2855540645405745e-05 0.0000000000000000e+00  1.1308404951854767e+00 -1.9113597175909956e-04 0.0000000000000000e+00  1.4090182703409959e+00 -3.4593060381041003e-04 0.0000000000000000e+00  6.6585350801315535e-01 -1.5101482054506816e-04 0.0000000000000000e+00  6.4888562580221276e-01 -5.4187840153239679e-08 0.0000000000000000e+00  0.0000000000000000e+00 4.8951008169709779e-16 0.0000000000000000e+00  1.4031644487476940e+00 -2.6977226456741410e-07 0.0000000000000000e+00  1.4999411938672322e+00 -2.6111007413174347e-07 0.0000000000000000e+00  1.1216410523186791e+00 -1.5393174470296305e-07 0.0000000000000000e+00  1.4064125898703230e+00 -2.2826484143898443e-07 0.0000000000000000e+00  6.5856961841405548e-01 -3.9009822793507208e-08 0.0000000000000000e+00  1.3930664991866872e+00 2.8292598096168334e-10 0.0000000000000000e+00  1.4994286257220431e+00 2.8600637800001338e-10 0.0000000000000000e+00  6.8374664677225228e-01 -2.2250782062132975e-09 0.0000000000000000e+00  6.8374664411616104e-01 -8.0574182463566749e-10 0.0000000000000000e+00  0.0000000000000000e+00 0.0000000000000000e+00 0.0000000000000000e+00  1.3878966715602103e+00 -2.0544621886136721e-08 0.0000000000000000e+00  1.4999230804266950e+00 -2.5917219217824703e-08 0.0000000000000000e+00  5.2278400206813003e-01 -5.2915452178507869e-09 0.0000000000000000e+00  5.2278399276969567e-01 -2.6307996226132038e-09 0.0000000000000000e+00  0.0000000000000000e+00 0.0000000000000000e+00 0.0000000000000000e+00  1.0547575567368714e+00 -9.4536627088947507e-09 0.0000000000000000e+00  1.3236896162181202e+00 -3.3945035227047306e-08 0.0000000000000000e+00  6.2110991350954126e-01 -2.2576377421510697e-08 0.0000000000000000e+00  6.2110988002463430e-01 -1.3461605279499639e-08 0.0000000000000000e+00  0.0000000000000000e+00 0.0000000000000000e+00 0.0000000000000000e+00  1.0081938986271659e+00 -2.9463337717424524e-08 0.0000000000000000e+00  1.3639553392643136e+00 -6.2986791418266143e-08 0.0000000000000000e+00  1.3943928711025007e+00 -1.2238807188399494e-07 0.0000000000000000e+00  1.4981010497694620e+00 -9.9075138025350548e-08 0.0000000000000000e+00  6.8551252003655583e-01 -1.1240065747865494e-03 0.0000000000000000e+00  6.8431274034920153e-01 -3.1804105644259384e-04 0.0000000000000000e+00  0.0000000000000000e+00 0.0000000000000000e+00 0.0000000000000000e+00  1.4141431990341466e+00 -5.1934902441706744e-03 0.0000000000000000e+00  1.4206127789735654e+00 -1.8349328531394832e-03 0.0000000000000000e+00  6.5070943756824084e-01 -5.5259132152970631e-08 0.0000000000000000e+00  6.5070935675822628e-01 -3.9292073103412220e-08 0.0000000000000000e+00  0.0000000000000000e+00 0.0000000000000000e+00 0.0000000000000000e+00  1.0976429885812973e+00 -9.4033846052227394e-08 0.0000000000000000e+00  1.4044876346235016e+00 -1.8662042661036394e-07 0.0000000000000000e+00  1.4050131869846196e+00 -2.4842040518435469e-07 0.0000000000000000e+00  1.4999986904236595e+00 -2.4533932218401386e-07 0.0000000000000000e+00  6.6338291483686473e-01 -2.9228457030498657e-05 0.0000000000000000e+00  6.6335320440585799e-01 3.3491794336344065e-05 0.0000000000000000e+00  0.0000000000000000e+00 0.0000000000000000e+00 0.0000000000000000e+00  1.1485910673974717e+00 -5.9615369342623016e-04 0.0000000000000000e+00  1.4137369245187137e+00 -5.7024761998113768e-04 0.0000000000000000e+00  1.4092860964152352e+00 -1.0887352938901815e-04 0.0000000000000000e+00  1.5000803804312368e+00 -4.4099606127238314e-04 0.0000000000000000e+00  6.1566336419191170e-01 -5.5794142041911589e-08 0.0000000000000000e+00  6.1566326242237912e-01 -6.2823572229580898e-08 0.0000000000000000e+00  0.0000000000000000e+00 0.0000000000000000e+00 0.0000000000000000e+00  1.0939550465929189e+00 -1.7441766095297173e-07 0.0000000000000000e+00  1.3930569829112787e+00 -2.62456