<?xml version="1.0"?>
<VTKFile type="UnstructuredGrid"  version="0.1"  >
<UnstructuredGrid>
<Piece  NumberOfPoints="525" NumberOfCells="924">
<Points>
<DataArray  type="Float64"  NumberOfComponents="3"  format="ascii">0 0 0  2.2 0 0  2.2 0.41 0  0 0.41 0  0.15 0.2 0  0.25 0.2 0  0.2 0.15 0  0.2 0.25 0  0.104762 0 0  0.209524 0 0  0.314286 0 0  0.419048 0 0  0.52381 0 0  0.628571 0 0  0.733333 0 0  0.838095 0 0  0.9428569999999999 0 0  1.04762 0 0  1.15238 0 0  1.25714 0 0  1.3619 0 0  1.46667 0 0  1.57143 0 0  1.67619 0 0  1.78095 0 0  1.88571 0 0  1.99048 0 0  2.09524 0 0  2.2 0.1025 0  2.2 0.205 0  2.2 0.3075 0  2.1 0.41 0  2 0.41 0  1.9 0.41 0  1.8 0.41 0  1.7 0.41 0  1.6 0.41 0  1.5 0.41 0  1.4 0.41 0  1.3 0.41 0  1.2 0.41 0  1.1 0.41 0  1 0.41 0  0.9 0.41 0  0.8 0.41 0  0.7 0.41 0  0.6 0.41 0  0.5 0.41 0  0.4 0.41 0  0.3 0.41 0  0.2 0.41 0  0.1 0.41 0  0 0.3075 0  0 0.205 0  0 0.1025 0  0.1566987973585577 0.2250001169958213 0  0.1749998830041787 0.2433012026414423 0  0.2250001169958213 0.2433012026414423 0  0.2433012026414423 0.2250001169958213 0  0.2433012026414423 0.1749998830041787 0  0.2250001169958213 0.1566987973585577 0  0.1749998830041787 0.1566987973585577 0  0.1566987973585577 0.1749998830041787 0  0.352033 0.262216 0  1.04579 0.252253 0  1.24065 0.243419 0  0.985775 0.171509 0  1.30324 0.187395 0  0.890988 0.190768 0  1.39085 0.202767 0  0.801464 0.204685 0  1.49904 0.204666 0  0.704267 0.202289 0  1.60238 0.204951 0  0.487789 0.19191 0  1.72935 0.219637 0  1.83335 0.187427 0  2.03359 0.193642 0  0.314663 0.307348 0  0.249039 0.333583 0  2.12147 0.253405 0  2.06373 0.0836837 0  0.0734726 0.267055 0  0.143989 0.0677174 0  0.0613613 0.33781 0  0.299628 0.236829 0  0.527114 0.295386 0  0.262384 0.26549 0  0.275777 0.18341 0  1.74578 0.330928 0  1.84001 0.302448 0  1.64998 0.313838 0  0.648421 0.302367 0  1.54544 0.308508 0  0.755686 0.306156 0  1.42668 0.314809 0  0.870524 0.298596 0  1.22553 0.112785 0  1.05603 0.147372 0  0.969346 0.329867 0  1.32527 0.276284 0  2.02914 0.29511 0  1.88168 0.119486 0  1.79545 0.104842 0  1.35688 0.0892539 0  1.69041 0.105324 0  0.914199 0.09555660000000001 0  1.58234 0.102923 0  0.61843 0.10815 0  1.47999 0.101161 0  0.725217 0.104273 0  0.821727 0.102306 0  1.96725 0.105778 0  0.418624 0.241547 0  0.135226 0.239087 0  1.14921 0.314841 0  0.404508 0.333259 0  0.590155 0.206269 0  2.12554 0.150731 0  1.93166 0.22436 0  0.104689 0.190046 0  0.267856 0.07447529999999999 0  0.269368 0.221581 0  0.434446 0.114927 0  1.0089 0.07933809999999999 0  0.953023 0.246698 0  1.25853 0.33355 0  1.05268 0.340828 0  2.1369 0.067383 0  0.522398 0.112537 0  1.3421 0.348929 0  0.215186 0.289473 0  0.203197 0.335348 0  1.13984 0.190728 0  1.93813 0.330504 0  1.10505 0.0883705 0  0.341988 0.0824728 0  0.253113 0.138035 0  0.291932 0.131907 0  0.203713 0.102439 0  0.150375 0.134668 0  0.151494 0.309119 0  0.354384 0.17896 0  0.06853670000000001 0.100776 0  0.424128 0.180088 0  0.474925 0.0568661 0  2.10843 0.347669 0  2.160735 0.2804525 0  2.160735 0.2292025 0  2.2 0.25625 0  2.079485 0.04184185 0  2.027105 0.04184185 0  2.04286 0 0  0.1767565 0.0338587 0  0.1243755 0.0338587 0  0.157143 0 0  0.08068065000000001 0.373905 0  0.03068065 0.373905 0  0.05 0.41 0  0.03068065 0.322655 0  0 0.35875 0  0.281851 0.3204655 0  0.2745195 0.3717915 0  0.3073315 0.358674 0  0.06741695 0.3024325 0  0.0367363 0.2872775 0  0.3071455 0.2720885 0  0.3258305 0.2495225 0  0.333348 0.284782 0  0.2557115 0.2995365 0  0.2885235 0.286419 0  2.075305 0.2742575 0  2.031365 0.244376 0  2.07753 0.2235235 0  2.01549 0.09473085000000001 0  1.978865 0.052889 0  2.00042 0.14971 0  2.04866 0.13866285 0  0.472869 0.2684665 0  0.4532065 0.2167285 0  0.5074514999999999 0.243648 0  2.16277 0.1778655 0  2.16277 0.1266155 0  2.2 0.15375 0  1.90667 0.171923 0  1.882505 0.2058935 0  1.857515 0.1534565 0  1.885835 0.263404 0  1.83668 0.2449375 0  0.6042925 0.1572095 0  0.647211 0.204279 0  0.6613485 0.1552195 0  0.3595855 0.3203035 0  0.3782705 0.2977375 0  0.155113 0.241194 0  0.1459625 0.2320435 0  0.1646446609406726 0.2353553390593274 0  0.259539 0.179205 0  0.2628885 0.191705 0  0.2482962819455563 0.1870590127797247 0  0.281006 0.2511595 0  1.0209025 0.1594405 0  1.05091 0.1998125 0  1.0157825 0.211881 0  1.264385 0.15009 0  1.23309 0.178102 0  1.271945 0.215407 0  1.291205 0.10101945 0  1.33006 0.13832445 0  0.928528 0.0477783 0  0.876147 0.0477783 0  0.890476 0 0  0.9025935 0.1431623 0  0.9499869999999999 0.1335328 0  0.9383815 0.1811385 0  0.867963 0.0989313 0  0.8563575 0.146537 0  0.8299110000000001 0.051153 0  1.411775 0.04462695 0  1.35939 0.04462695 0  1.414285 0 0  1.373865 0.14601045 0  1.347045 0.195081 0  1.418435 0.09520745 0  1.43542 0.151964 0  1.47333 0.0505805 0  0.7775300000000001 0.051153 0  0.785714 0 0  0.8115954999999999 0.1534955 0  0.8462259999999999 0.1977265 0  0.7734719999999999 0.1032895 0  0.7633405 0.154479 0  0.729275 0.0521365 0  1.52571 0.0505805 0  1.51905 0 0  1.489515 0.1529135 0  1.444945 0.2037165 0  1.531165 0.102042 0  1.54069 0.1537945 0  1.576885 0.0514615 0  1.9804 0.259735 0  1.982625 0.209001 0  1.820005 0.356224 0  1.870005 0.356224 0  1.85 0.41 0  1.78468 0.2610425 0  1.78135 0.203532 0  1.72289 0.370464 0  1.77289 0.370464 0  1.75 0.41 0  1.792895 0.316688 0  1.737565 0.2752825 0  1.62499 0.361919 0  1.67499 0.361919 0  1.65 0.41 0  1.69788 0.322383 0  1.689665 0.2667375 0  1.62618 0.2593945 0  1.665865 0.212294 0  0.6242105 0.3561835 0  0.6742105 0.3561835 0  0.6499999999999999 0.41 0  0.6192880000000001 0.254318 0  0.6763440000000001 0.252328 0  1.52272 0.359254 0  1.57272 0.359254 0  1.55 0.41 0  1.59771 0.311173 0  1.57391 0.2567295 0  1.52224 0.256587 0  1.55071 0.2048085 0  0.727843 0.358078 0  0.7778430000000001 0.358078 0  0.75 0.41 0  0.7020535 0.3042615 0  0.7299765 0.2542225 0  0.778575 0.2554205 0  0.7528655 0.203487 0  1.41334 0.3624045 0  1.46334 0.3624045 0  1.45 0.41 0  1.48606 0.3116585 0  1.46286 0.2597375 0  1.408765 0.258788 0  0.8352619999999999 0.354298 0  0.885262 0.354298 0  0.8500000000000001 0.41 0  0.813105 0.302376 0  0.8359939999999999 0.2516405 0  0.880756 0.244682 0  0.9346730000000001 0.3699335 0  0.984673 0.3699335 0  0.95 0.41 0  0.9199349999999999 0.3142315 0  0.676894 0.0521365 0  0.680952 0 0  0.714742 0.153281 0  0.6718235 0.1062115 0  0.6235005 0.054075 0  1.629265 0.0514615 0  1.62381 0 0  1.59236 0.153937 0  1.636375 0.1041235 0  1.646395 0.1551375 0  1.6833 0.052662 0  1.73568 0.052662 0  1.72857 0 0  1.70988 0.1624805 0  1.74293 0.105083 0  1.7624 0.1622395 0  1.7882 0.052421 0  1.84058 0.052421 0  1.83333 0 0  1.8144 0.1461345 0  1.838565 0.112164 0  1.883695 0.059743 0  1.124605 0.3624205 0  1.174605 0.3624205 0  1.15 0.41 0  1.314255 0.2318395 0  1.28296 0.2598515 0  1.35806 0.2395255 0  1.375975 0.2955465 0  1.92648 0.052889 0  1.938095 0 0  1.924465 0.112632 0  1.949455 0.165069 0  0.352254 0.3716295 0  0.402254 0.3716295 0  0.35 0.41 0  0.513557 0.352693 0  0.563557 0.352693 0  0.55 0.41 0  0.5877675 0.2988765 0  0.5586344999999999 0.2508275 0  0.538972 0.1990895 0  0.452254 0.3716295 0  0.45 0.41 0  0.465811 0.3143225 0  0.411566 0.287403 0  0.3853285 0.2518815 0  0.1199575 0.2145665 0  0.0890808 0.2285505 0  0.1043493 0.253071 0  0.2245195 0.3717915 0  0.25 0.41 0  0.291071 0.03723765 0  0.23869 0.03723765 0  0.261905 0 0  0.265876 0.2435355 0  0.2563345 0.2232905 0  0.2528425 0.245245 0  0.284498 0.229205 0  1.032465 0.11335505 0  0.9973375 0.12542355 0  0.9615494999999999 0.08744735000000001 0  0.9220055 0.218733 0  0.9693989999999999 0.2091035 0  0.9611845 0.2882825 0  0.9117735 0.272647 0  1.229265 0.371775 0  1.279265 0.371775 0  1.25 0.41 0  1.02634 0.375414 0  1.07634 0.375414 0  1.05 0.41 0  1.011013 0.3353475 0  2.11607 0.0336915 0  2.16845 0.0336915 0  2.14762 0 0  2.16845 0.0849415 0  2.2 0.05125 0  2.100315 0.07553335 0  0.5562765000000001 0.159403 0  0.570414 0.1103435 0  0.5050935 0.1522235 0  1.32105 0.3794645 0  1.37105 0.3794645 0  1.35 0.41 0  1.333685 0.3126065 0  1.38439 0.331869 0  0.9994065 0.2494755 0  1.007568 0.29106 0  1.300315 0.3412395 0  1.2919 0.304917 0  2.13122 0.109057 0  2.094635 0.11720735 0  0.2725725 0.2024955 0  0.259684 0.2107905 0  0.2482962819455563 0.2129409872202754 0  0.2877025 0.2101195 0  2.123505 0.202068 0  2.079565 0.1721865 0  1.02826 0.03966905 0  0.9758784999999999 0.03966905 0  0.9952384999999999 0 0  1.049235 0.2965405 0  1.100945 0.3278345 0  1.0975 0.283547 0  0.5711200000000001 0.054075 0  0.5761905 0 0  0.523104 0.0562685 0  1.24959 0.2884845 0  1.20387 0.3241955 0  1.19493 0.27913 0  0.238785 0.2774815 0  0.2321125 0.311528 0  0.226118 0.3344655 0  0.2015985 0.3726739999999999 0  1.144525 0.2527845 0  1.190245 0.2170735 0  1.092815 0.2214905 0  0.2091915 0.3124105 0  0.220093 0.266387 0  0.243692 0.2543955 0  0.2353553390593274 0.2353553390593274 0  0.478422 0.113732 0  0.4611175 0.1534185 0  1.919065 0.370252 0  1.969065 0.370252 0  1.95 0.41 0  1.983635 0.312807 0  2.01457 0.352555 0  1.88907 0.316476 0  1.934895 0.277432 0  1.182685 0.1517565 0  1.097935 0.16905 0  1.128715 0.04418525 0  1.076335 0.04418525 0  1.1 0 0  1.056975 0.08385429999999999 0  1.08054 0.11787125 0  1.122445 0.13954925 0  1.16529 0.10057775 0  0.304922 0.07847404999999999 0  0.328137 0.0412364 0  0.380518 0.0412364 0  0.366667 0 0  0.388217 0.09869990000000001 0  0.426747 0.0574635 0  0.31696 0.1071899 0  0.279894 0.10319115 0  0.2725225 0.134971 0  0.2604845 0.10625515 0  0.228413 0.120237 0  0.2143565 0.129569 0  0.2390565 0.147367 0  1.30701 0.04462695 0  1.30952 0 0  1.241335 0.0563925 0  0.2357845 0.08845715 0  1.188955 0.0563925 0  1.20476 0 0  0.2066185 0.0512195 0  0.173851 0.08507819999999999 0  0.0367363 0.2360275 0  0 0.25625 0  0.264445 0.1607225 0  0.248207 0.1565175 0  0.2353553390593274 0.1646446609406726 0  0.2838545 0.1576585 0  0.130694 0.182523 0  0.1273445 0.195023 0  0.1517037180544437 0.1870590127797247 0  0.127532 0.162357 0  0.153537 0.154834 0  0.0523445 0.197523 0  0
[...]
<PointData  Vectors="u"> 
<DataArray  type="Float64"  Name="u"  NumberOfComponents="3" format="ascii">4.1170680440481234e-15 -1.1975229969968653e-15 0.0000000000000000e+00  0.0000000000000000e+00 0.0000000000000000e+00 0.0000000000000000e+00  0.0000000000000000e+00 0.0000000000000000e+00 0.0000000000000000e+00  0.0000000000000000e+00 0.0000000000000000e+00 0.0000000000000000e+00  0.0000000000000000e+00 0.0000000000000000e+00 0.0000000000000000e+00  0.0000000000000000e+00 0.0000000000000000e+00 0.0000000000000000e+00  0.0000000000000000e+00 0.0000000000000000e+00 0.0000000000000000e+00  0.0000000000000000e+00 0.0000000000000000e+00 0.0000000000000000e+00  0.0000000000000000e+00 0.0000000000000000e+00 0.0000000000000000e+00  0.0000000000000000e+00 1.0050450228801804e-15 0.0000000000000000e+00  0.0000000000000000e+00 0.0000000000000000e+00 0.0000000000000000e+00  0.0000000000000000e+00 0.0000000000000000e+00 0.0000000000000000e+00  0.0000000000000000e+00 0.0000000000000000e+00 0.0000000000000000e+00  0.0000000000000000e+00 -9.1439016673591172e-16 0.0000000000000000e+00  0.0000000000000000e+00 3.6359315236591872e-16 0.0000000000000000e+00  0.0000000000000000e+00 0.0000000000000000e+00 0.0000000000000000e+00  0.0000000000000000e+00 0.0000000000000000e+00 0.0000000000000000e+00  0.0000000000000000e+00 0.0000000000000000e+00 0.0000000000000000e+00  0.0000000000000000e+00 -4.6251996269862874e-16 0.0000000000000000e+00  0.0000000000000000e+00 -3.3310165200163247e-16 0.0000000000000000e+00  0.0000000000000000e+00 0.0000000000000000e+00 0.0000000000000000e+00  0.0000000000000000e+00 0.0000000000000000e+00 0.0000000000000000e+00  -6.6863251194463879e-16 -4.7290021342164968e-16 0.0000000000000000e+00  -7.7174392122016526e-16 0.0000000000000000e+00 0.0000000000000000e+00  5.4520866063335244e-16 0.0000000000000000e+00 0.0000000000000000e+00  0.0000000000000000e+00 0.0000000000000000e+00 0.0000000000000000e+00  0.0000000000000000e+00 0.0000000000000000e+00 0.0000000000000000e+00  0.0000000000000000e+00 0.0000000000000000e+00 0.0000000000000000e+00  1.1250000000717839e+00 4.4622578524459608e-10 0.0000000000000000e+00  1.5000000000005089e+00 7.4580542491792158e-10 0.0000000000000000e+00  1.1249999999283933e+00 4.4582487461157446e-10 0.0000000000000000e+00  6.5792237810755219e-16 0.0000000000000000e+00 0.0000000000000000e+00  0.0000000000000000e+00 -1.1521111484841822e-15 0.0000000000000000e+00  0.0000000000000000e+00 -6.8866492066002388e-16 0.0000000000000000e+00  0.0000000000000000e+00 0.0000000000000000e+00 0.0000000000000000e+00  0.0000000000000000e+00 0.0000000000000000e+00 0.0000000000000000e+00  0.0000000000000000e+00 0.0000000000000000e+00 0.0000000000000000e+00  0.0000000000000000e+00 0.0000000000000000e+00 0.0000000000000000e+00  0.0000000000000000e+00 0.0000000000000000e+00 0.0000000000000000e+00  0.0000000000000000e+00 0.0000000000000000e+00 0.0000000000000000e+00  0.0000000000000000e+00 5.4761264623172629e-16 0.0000000000000000e+00  0.0000000000000000e+00 0.0000000000000000e+00 0.0000000000000000e+00  0.0000000000000000e+00 0.0000000000000000e+00 0.0000000000000000e+00  0.0000000000000000e+00 5.6826343520450545e-16 0.0000000000000000e+00  0.0000000000000000e+00 -9.5385437608815090e-16 0.0000000000000000e+00  0.0000000000000000e+00 -1.0207979591929142e-15 0.0000000000000000e+00  0.0000000000000000e+00 0.0000000000000000e+00 0.0000000000000000e+00  0.0000000000000000e+00 0.0000000000000000e+00 0.0000000000000000e+00  0.0000000000000000e+00 0.0000000000000000e+00 0.0000000000000000e+00  0.0000000000000000e+00 0.0000000000000000e+00 0.0000000000000000e+00  0.0000000000000000e+00 -6.5789406039254092e-16 0.0000000000000000e+00  0.0000000000000000e+00 0.0000000000000000e+00 0.0000000000000000e+00  1.1249999999999998e+00 0.0000000000000000e+00 0.0000000000000000e+00  1.4999999999999969e+00 0.0000000000000000e+00 0.0000000000000000e+00  1.1250000000000000e+00 0.0000000000000000e+00 0.0000000000000000e+00  0.0000000000000000e+00 -3.7177360247935770e-16 0.0000000000000000e+00  2.4831332101050487e-15 3.1038094730316999e-16 0.0000000000000000e+00  -3.1994192678695196e-16 0.0000000000000000e+00 0.0000000000000000e+00  0.0000000000000000e+00 0.0000000000000000e+00 0.0000000000000000e+00  0.0000000000000000e+00 0.0000000000000000e+00 0.0000000000000000e+00  -1.2560283735622583e-15 0.0000000000000000e+00 0.0000000000000000e+00  0.0000000000000000e+00 0.0000000000000000e+00 0.0000000000000000e+00  1.2122826383719703e-15 0.0000000000000000e+00 0.0000000000000000e+00  1.2554234814257854e+00 -3.3165476862566656e-01 0.0000000000000000e+00  1.4202861685150183e+00 5.0715652851095055e-05 0.0000000000000000e+00  1.4473172862830610e+00 1.9781939874180519e-07 0.0000000000000000e+00  1.4599984911091677e+00 1.0711399889172440e-04 0.0000000000000000e+00  1.4889369831508168e+00 -1.3368709120440887e-06 0.0000000000000000e+00  1.4928337171152215e+00 2.7960883304680014e-04 0.0000000000000000e+00  1.4998219873434808e+00 -1.2960354679500635e-06 0.0000000000000000e+00  1.5000938653027294e+00 4.9975105794781885e-04 0.0000000000000000e+00  1.4999960159468995e+00 -5.9206055847608565e-07 0.0000000000000000e+00  1.4999362625180936e+00 3.5400571545362149e-04 0.0000000000000000e+00  1.4999999143294935e+00 -1.9386581209945025e-07 0.0000000000000000e+00  1.4584723773972097e+00 -6.4390999703939703e-03 0.0000000000000000e+00  1.4923530611181317e+00 -2.6575294689149436e-08 0.0000000000000000e+00  1.4889776219175952e+00 1.4700820776009025e-09 0.0000000000000000e+00  1.4953954494961754e+00 2.2838661139070327e-09 0.0000000000000000e+00  1.4311233813272217e+00 -4.3028783785312702e-01 0.0000000000000000e+00  1.7580643909394442e+00 -2.7566902407918253e-01 0.0000000000000000e+00  1.4163696358489557e+00 9.7845715484593512e-10 0.0000000000000000e+00  9.7468252420717449e-01 7.1702939064462643e-10 0.0000000000000000e+00  1.2760364374769622e+00 5.6636812429990557e-01 0.0000000000000000e+00  1.5537148365577123e+00 -2.9542573278220857e-01 0.0000000000000000e+00  1.0833391245206134e+00 2.9544899047579976e-01 0.0000000000000000e+00  8.2787521141500897e-01 -4.1548455104996906e-01 0.0000000000000000e+00  1.2141665695744168e+00 -2.2883086131223845e-02 0.0000000000000000e+00  1.1326512767597361e+00 -6.0953704839133771e-01 0.0000000000000000e+00  3.3952996592027795e-01 2.2176553939052429e-01 0.0000000000000000e+00  9.3398472533833277e-01 -4.7987996024475822e-09 0.0000000000000000e+00  1.1610548645562644e+00 1.8667821089637881e-09 0.0000000000000000e+00  1.0771906290144073e+00 -4.6192262919871598e-08 0.0000000000000000e+00  1.1611286762167523e+00 -9.0911290830913397e-04 0.0000000000000000e+00  1.1175883340481507e+00 -1.9400996545766800e-07 0.0000000000000000e+00  1.1341075289404385e+00 4.2626677395640408e-04 0.0000000000000000e+00  1.0696135589089810e+00 -5.3119155116779992e-07 0.0000000000000000e+00  1.1870723362327753e+00 2.3867859743324847e-04 0.0000000000000000e+00  1.1964784622057913e+00 3.5886844424443836e-07 0.0000000000000000e+00  1.3814808603785294e+00 3.9904229920458055e-05 0.0000000000000000e+00  9.4340440659506863e-01 5.3786335540739653e-05 0.0000000000000000e+00  1.3186305441961064e+00 -1.2173203492719884e-06 0.0000000000000000e+00  1.2101792214266229e+00 1.5182693059364773e-09 0.0000000000000000e+00  1.2389895042981776e+00 2.9599503346048126e-09 0.0000000000000000e+00  1.1419408162187417e+00 -9.7591524432616450e-10 0.0000000000000000e+00  1.0218131515125519e+00 -7.1871792959989555e-07 0.0000000000000000e+00  1.1453787497260839e+00 -2.7776271224165394e-08 0.0000000000000000e+00  1.0726232111222032e+00 1.0172698595349969e-04 0.0000000000000000e+00  1.1280886114377799e+00 -1.2891195597358664e-07 0.0000000000000000e+00  1.1662644261608985e+00 1.0772272581978343e-03 0.0000000000000000e+00  1.1151379743588714e+00 -3.7282774215781462e-07 0.0000000000000000e+00  1.1385844224375867e+00 2.4096489266103909e-04 0.0000000000000000e+00  1.1239507632555075e+00 2.0108406227226352e-04 0.0000000000000000e+00  1.1486018370434952e+00 2.1005882529323254e-09 0.0000000000000000e+00  1.3629683467348102e+00 -1.1653071862486700e-01 0.0000000000000000e+00  6.0277649649687404e-01 5.5045963323073099e-01 0.0000000000000000e+00  1.0693609523038201e+00 4.5386663494166251e-06 0.0000000000000000e+00  1.0369538097789921e+00 -1.1708038767158592e-01 0.0000000000000000e+00  1.4970057960818641e+00 -3.0089457235856574e-03 0.0000000000000000e+00  1.3948795591917529e+00 9.1715978590284989e-10 0.0000000000000000e+00  1.4866219049737586e+00 4.0068543036584873e-09 0.0000000000000000e+00  6.3065501031774995e-01 -1.0189920871536846e-01 0.0000000000000000e+00  1.5407372430606159e+00 3.2884159955482239e-01 0.0000000000000000e+00  3.1508750415827158e-01 -2.9117612838775458e-01 0.0000000000000000e+00  1.2102680699813784e+00 7.6934083070950593e-02 0.0000000000000000e+00  9.3641484886252624e-01 2.8993533615257753e-05 0.0000000000000000e+00  1.4378878463159817e+00 1.5531866313198153e-04 0.0000000000000000e+00  9.1017133443461551e-01 -4.5594522718214030e-07 0.0000000000000000e+00  8.4147218214806396e-01 1.3947039805586184e-05 0.0000000000000000e+00  8.2402955339931372e-01 2.8761917171063852e-10 0.0000000000000000e+00  1.1959892759344075e+00 1.2715815960828844e-02 0.0000000000000000e+00  7.6060031372061232e-01 -4.3745983358083588e-07 0.0000000000000000e+00  1.7064847934604368e+00 -1.9355569772098263e-01 0.0000000000000000e+00  1.8973713717973506e+00 -1.1160870776655426e-02 0.0000000000000000e+00  1.4927304233269869e+00 1.3264332849412190e-05 0.0000000000000000e+00  9.3778985872522758e-01 1.6441048728984635e-09 0.0000000000000000e+00  1.0144938568851640e+00 9.0536704379634479e-06 0.0000000000000000e+00  1.1820731320120137e+00 2.5212888997434346e-01 0.0000000000000000e+00  1.0026803498632282e+00 5.5165088937360851e-01 0.0000000000000000e+00  1.1436699861052981e+00 5.4429359407609779e-01 0.0000000000000000e+00  1.7629420421712803e+00 3.6677424671916731e-02 0.0000000000000000e+00  1.0967905806957701e+00 -5.7125337170933388e-01 0.0000000000000000e+00  1.7790270072984617e+00 4.6720103531399737e-01 0.0000000000000000e+00  1.1057442862845477e+00 1.0082830171935517e-01 0.0000000000000000e+00  1.2382863503343742e+00 -4.2012312928021134e-01 0.0000000000000000e+00  1.3628825881883766e+00 1.7440719752217212e-02 0.0000000000000000e+00  7.3898542662854050e-01 1.7271836506801905e-02 0.0000000000000000e+00  7.7348803415300760e-01 3.0057743880164016e-10 0.0000000000000000e+00  1.2967966770723258e+00 6.2978717096445047e-10 0.0000000000000000e+00  1.4790924089414363e+00 8.1536098428318059e-10 0.0000000000000000e+00  1.4062499999106590e+00 6.6220477371954263e-10 0.0000000000000000e+00  5.4983050943193068e-01 1.8628432861184375e-10 0.0000000000000000e+00  5.4983050998065153e-01 2.9965620465948947e-10 0.0000000000000000e+00  0.0000000000000000e+00 7.6814925813643287e-16 0.0000000000000000e+00  1.1548074633594037e+00 -4.9419597428568621e-02 0.0000000000000000e+00  9.3138528665326514e-01 -1.0751432010662680e-01 0.0000000000000000e+00  0.0000000000000000e+00 -1.8602899217969740e-15 0.0000000000000000e+00  7.4105405808773706e-01 1.1452452351278919e-01 0.0000000000000000e+00  5.2804730303541259e-01 5.4765336701083460e-02 0.0000000000000000e+00  0.0000000000000000e+00 -1.1883413313835110e-15 0.0000000000000000e+00  1.0642147516089735e+00 2.3107061100672249e-01 0.0000000000000000e+00  6.5624999999999989e-01 0.0000000000000000e+00 0.0000000000000000e+00  1.6032960325664054e+00 -4.1499749382159551e-01 0.0000000000000000e+00  1.0924310237127148e+00 -1.0847527205090852e-01 0.0000000000000000e+00  1.1429117894664991e+00 -1.7108462735226465e-01 0.0000000000000000e+00  1.3088759483158088e+00 4.9629180887497309e-01 0.0000000000000000e+00  1.2804110144546339e+00 3.5903984469505351e-01 0.0000000000000000e+00  1.2529236025300403e+00 -5.3303717430849140e-01 0.0000000000000000e+00  1.1066625271915005e+00 -3.9533924557695993e-01 0.0000000000000000e+00  1.3266374201375302e+00 -4.2035387346872183e-01 0.0000000000000000e+00  1.6793494333023236e+00 -4.9616699678094045e-01 0.0000000000000000e+00  1.4167522790237990e+00 -5.7584217187913700e-01 0.0000000000000000e+00  1.3287947175232959e+00 1.2587777451468244e-09 0.0000000000000000e+00  1.4446590338748202e+00 2.1632195229573723e-09 0.0000000000000000e+00  1.4877530020320238e+00 1.5752587917693319e-09 0.0000000000000000e+00  1.0659981420721711e+00 1.2965035854236116e-09 0.0000000000000000e+00  6.7414314369778072e-01 6.6393511027850635e-10 0.0000000000000000e+00  1.3908869462736417e+00 2.5035497012166996e-09 0.0000000000000000e+00  1.3429285863820157e+00 1.6121313004894267e-09 0.0000000000000000e+00  1.3485668636090884e+00 -6.3091373516893035e-02 0.0000000000000000e+00  1.4278266819800016e+00 -4.2315400755496932e-02 0.0000000000000000e+00  1.4321279150356896e+00 -2.9215029165847860e-02 0.0000000000000000e+00  1.4737198898250166e+00 8.0090065760670338e-10 0.0000000000000000e+00  1.2806973289947612e+00 6.0893978581488503e-10 0.0000000000000000e+00  1.4062500000903237e+00 6.6202962669109479e-10 0.0000000000000000e+00  1.4609486779674510e+00 4.0063410847388734e-09 0.0000000000000000e+00  1.4999715046705442e+00 3.9602544013049175e-09 0.0000000000000000e+00  1.4051731485114327e+00 2.9469126022931979e-09 0.0000000000000000e+00  1.3782500658943335e+00 3.5511060538089257e-09 0.0000000000000000e+00  1.4430694590717164e+00 1.7983243379598355e-09 0.0000000000000000e+00  1.4176807782743701e+00 6.2846648337528126e-04 0.0000000000000000e+00  1.4996919639376594e+00 -5.1781940364261942e-04 0.0000000000000000e+00  1.4120525071516052e+00 3.2016215800744993e-04 0.0000000000000000e+00  1.2415502286362448e+00 -2.4844639141010086e-01 0.0000000000000000e+00  1.2788774406330186e+00 -2.4287117072540579e-01 0.0000000000000000e+00  4.0823614387435503e-01 3.6527397620988988e-01 0.0000000000000000e+00  3.1705471292734322e-01 3.7923985458870857e-01 0.0000000000000000e+00  0.0000000000000000e+00 0.0000000000000000e+00 0.0000000000000000e+00  1.7778872078628666e-01 2.3206930034393747e-01 0.0000000000000000e+00  1.1242353533543124e-01 9.4696561717921637e-02 0.0000000000000000e+00  0.0000000000000000e+00 0.0000000000000000e+00 0.0000000000000000e+00  9.0899004330936162e-01 -5.6414271531503746e-01 0.0000000000000000e+00  1.4259385725071105e+00 6.7406033423589645e-05 0.0000000000000000e+00  1.4990421043404953e+00 5.2909590461927316e-05 0.0000000000000000e+00  1.4983073601277284e+00 8.2666103461840574e-05 0.0000000000000000e+00  1.3923802079133309e+00 -6.3300312371857650e-07 0.0000000000000000e+00  1.4741753524654133e+00 6.6589053906118885e-07 0.0000000000000000e+00  1.4961344982526941e+00 -8.2844262922349899e-07 0.0000000000000000e+00  1.1140863268777370e+00 -8.2750340568463956e-07 0.0000000000000000e+00  1.3413206265229487e+00 -1.2395950098392521e-06 0.0000000000000000e+00  6.1780174786320829e-01 2.7170347450670203e-05 0.0000000000000000e+00  6.1786959927037244e-01 4.0852887472495809e-05 0.0000000000000000e+00  0.0000000000000000e+00 0.0000000000000000e+00 0.0000000000000000e+00  1.3636587308060308e+00 1.9672834011154368e-04 0.0000000000000000e+00  1.3177855358709065e+00 1.1935059687573214e-04 0.0000000000000000e+00  1.4797262722434437e+00 1.7976445259760735e-04 0.0000000000000000e+00  1.0986766110165598e+00 1.5022815033046948e-04 0.0000000000000000e+00  1.3782333134054139e+00 2.8023678699706388e-04 0.0000000000000000e+00  6.5543373643254710e-01 5.8970226200961444e-05 0.0000000000000000e+00  5.8199164129251535e-01 -1.7225078387059534e-07 0.0000000000000000e+00  5.8199121838936851e-01 -2.3324584069589217e-07 0.0000000000000000e+00  -3.0611962911095253e-16 0.0000000000000000e+00 0.0000000000000000e+00  1.3757956045932394e+00 -1.1799475840117502e-06 0.0000000000000000e+00  1.4964880738442978e+00 -1.4856396871514034e-06 0.0000000000000000e+00  1.0697407887440056e+00 -5.6102229135865840e-07 0.0000000000000000e+00  1.3996014893757591e+00 -8.6212071492195602e-07 0.0000000000000000e+00  6.4888544944655169e-01 -1.2738476179373690e-07 0.0000000000000000e+00  6.5555293909268508e-01 6.6085607396098507e-05 0.0000000000000000e+00  0.0000000000000000e+00 -7.8401073938438770e-16 0.0000000000000000e+00  1.4056431540300656e+00 3.7160707750919951e-04 0.0000000000000000e+00  1.4981930200644549e+00 3.9127167002041757e-04 0.0000000000000000e+00  1.1312920307900673e+00 2.3162211203260342e-04 0.0000000000000000e+00  1.4093704422099793e+00 4.2061666047646634e-04 0.0000000000000000e+00  6.6644464845801843e-01 6.5610619971702330e-05 0.0000000000000000e+00  6.4888563537780108e-01 -7.5393882775133378e-08 0.0000000000000000e+00  8.8245516486725485e-16 -5.5006722263528480e-16 0.0000000000000000e+00  1.4031643692938653e+00 -5.5876363448876031e-07 0.0000000000000000e+00  1.4999411876112771e+00 -9.2864338393758927e-07 0.0000000000000000e+00  1.1216410401467864e+00 -2.2806979793795027e-07 0.0000000000000000e+00  1.4064125787672221e+00 -3.4008658617847882e-07 0.0000000000000000e+00  6.5856965256557898e-01 -4.2532411629848566e-08 0.0000000000000000e+00  1.3930664981144276e+00 2.8550338848615292e-09 0.0000000000000000e+00  1.4994286256346405e+00 3.2600892621218809e-09 0.0000000000000000e+00  6.8374663794676871e-01 6.9064933758682231e-10 0.0000000000000000e+00  6.8374663916464573e-01 1.0513897487162318e-09 0.0000000000000000e+00  0.0000000000000000e+00 0.0000000000000000e+00 0.0000000000000000e+00  1.3878966608224790e+00 -4.5515764729239365e-09 0.0000000000000000e+00  1.4999230807262485e+00 -6.9811264281319299e-09 0.0000000000000000e+00  5.2278398420266792e-01 -2.0597037097041895e-09 0.0000000000000000e+00  5.2278398125659886e-01 -1.9873869367670766e-10 0.0000000000000000e+00  0.0000000000000000e+00 0.0000000000000000e+00 0.0000000000000000e+00  1.0547575424019116e+00 -7.1265705698338825e-10 0.0000000000000000e+00  1.3236895977784240e+00 -1.5829404063415708e-08 0.0000000000000000e+00  6.2110987861155653e-01 -1.9299950405910462e-08 0.0000000000000000e+00  6.2110985179991496e-01 -8.5751230951663968e-09 0.0000000000000000e+00  0.0000000000000000e+00 0.0000000000000000e+00 0.0000000000000000e+00  1.0081938687859644e+00 -1.7615398089860300e-08 0.0000000000000000e+00  1.3639553173809071e+00 -4.3597535851382222e-08 0.0000000000000000e+00  1.3943928499721658e+00 -1.1978840563795110e-07 0.0000000000000000e+00  1.4981010468028277e+00 -8.1079180918437109e-08 0.0000000000000000e+00  6.8375264184583240e-01 -6.8274726577181074e-04 0.0000000000000000e+00  6.8320489446372568e-01 2.8694585311662256e-05 0.0000000000000000e+00  0.0000000000000000e+00 0.0000000000000000e+00 0.0000000000000000e+00  1.4125127793263874e+00 -2.9449462213509492e-03 0.0000000000000000e+00  1.4197122895054470e+00 -1.9230518955277344e-04 0.0000000000000000e+00  6.5070943052367158e-01 -7.7802940810531498e-08 0.0000000000000000e+00  6.5070932351290633e-01 -4.3580878615840055e-08 0.0000000000000000e+00  0.0000000000000000e+00 0.0000000000000000e+00 0.0000000000000000e+00  1.0976429551178111e+00 -9.9916477725671512e-08 0.0000000000000000e+00  1.4044876257938919e+00 -2.3438975820671431e-07 0.0000000000000000e+00  1.4050132163217359e+00 -4.1059313700332479e-07 0.0000000000000000e+00  1.4999986905264344e+00 -3.5300123047365470e-07 0.0000000000000000e+00  6.6278876202961789e-01 1.8145981156130419e-04 0.0000000000000000e+00  6.6304729597426637e-01 1.5951884454427733e-04 0.0000000000000000e+00  0.0000000000000000e+00 0.0000000000000000e+00 0.0000000000000000e+00  1.1475418709714853e+00 2.4563337268534985e-04 0.0000000000000000e+00  1.4132204703728657e+00 4.8108232408316642e-04 0.0000000000000000e+00  1.4089963129175549e+00 5.3812558858709321e-04 0.0000000000000000e+00  1.5000903750572288e+00 5.3376836102161842e-04 0.0000000000000000e+00  6.1566364250503258e-01 -1.8988924600397955e-07 0.0000000000000000e+00  6.1566334951819490e-01 -1.2602769707698522e-07 0.0000000000000000e+00  0.0000000000000000e+00 0.0000000000000000e+00 0.0000000000000000e+00  1.0939551465908308e+00 -3.3918401463266770e-07 0.0000000000000000e+00  1.3930571311360584e+00 -6.9291014703712464e-0