<?xml version="1.0"?>
<VTKFile type="UnstructuredGrid"  version="0.1"  >
<UnstructuredGrid>
<Piece  NumberOfPoints="525" NumberOfCells="924">
<Points>
<DataArray  type="Float64"  NumberOfComponents="3"  format="ascii">0 0 0  2.2 0 0  2.2 0.41 0  0 0.41 0  0.15 0.2 0  0.25 0.2 0  0.2 0.15 0  0.2 0.25 0  0.104762 0 0  0.209524 0 0  0.314286 0 0  0.419048 0 0  0.52381 0 0  0.628571 0 0  0.733333 0 0  0.838095 0 0  0.9428569999999999 0 0  1.04762 0 0  1.15238 0 0  1.25714 0 0  1.3619 0 0  1.46667 0 0  1.57143 0 0  1.67619 0 0  1.78095 0 0  1.88571 0 0  1.99048 0 0  2.09524 0 0  2.2 0.1025 0  2.2 0.205 0  2.2 0.3075 0  2.1 0.41 0  2 0.41 0  1.9 0.41 0  1.8 0.41 0  1.7 0.41 0  1.6 0.41 0  1.5 0.41 0  1.4 0.41 0  1.3 0.41 0  1.2 0.41 0  1.1 0.41 0  1 0.41 0  0.9 0.41 0  0.8 0.41 0  0.7 0.41 0  0.6 0.41 0  0.5 0.41 0  0.4 0.41 0  0.3 0.41 0  0.2 0.41 0  0.1 0.41 0  0 0.3075 0  0 0.205 0  0 0.1025 0  0.1566987973585577 0.2250001169958213 0  0.1749998830041787 0.2433012026414423 0  0.2250001169958213 0.2433012026414423 0  0.2433012026414423 0.2250001169958213 0  0.2433012026414423 0.1749998830041787 0  0.2250001169958213 0.1566987973585577 0  0.1749998830041787 0.1566987973585577 0  0.1566987973585577 0.1749998830041787 0  0.352033 0.262216 0  1.04579 0.252253 0  1.24065 0.243419 0  0.985775 0.171509 0  1.30324 0.187395 0  0.890988 0.190768 0  1.39085 0.202767 0  0.801464 0.204685 0  1.49904 0.204666 0  0.704267 0.202289 0  1.60238 0.204951 0  0.487789 0.19191 0  1.72935 0.219637 0  1.83335 0.187427 0  2.03359 0.193642 0  0.314663 0.307348 0  0.249039 0.333583 0  2.12147 0.253405 0  2.06373 0.0836837 0  0.0734726 0.267055 0  0.143989 0.0677174 0  0.0613613 0.33781 0  0.299628 0.236829 0  0.527114 0.295386 0  0.262384 0.26549 0  0.275777 0.18341 0  1.74578 0.330928 0  1.84001 0.302448 0  1.64998 0.313838 0  0.648421 0.302367 0  1.54544 0.308508 0  0.755686 0.306156 0  1.42668 0.314809 0  0.870524 0.298596 0  1.22553 0.112785 0  1.05603 0.147372 0  0.969346 0.329867 0  1.32527 0.276284 0  2.02914 0.29511 0  1.88168 0.119486 0  1.79545 0.104842 0  1.35688 0.0892539 0  1.69041 0.105324 0  0.914199 0.09555660000000001 0  1.58234 0.102923 0  0.61843 0.10815 0  1.47999 0.101161 0  0.725217 0.104273 0  0.821727 0.102306 0  1.96725 0.105778 0  0.418624 0.241547 0  0.135226 0.239087 0  1.14921 0.314841 0  0.404508 0.333259 0  0.590155 0.206269 0  2.12554 0.150731 0  1.93166 0.22436 0  0.104689 0.190046 0  0.267856 0.07447529999999999 0  0.269368 0.221581 0  0.434446 0.114927 0  1.0089 0.07933809999999999 0  0.953023 0.246698 0  1.25853 0.33355 0  1.05268 0.340828 0  2.1369 0.067383 0  0.522398 0.112537 0  1.3421 0.348929 0  0.215186 0.289473 0  0.203197 0.335348 0  1.13984 0.190728 0  1.93813 0.330504 0  1.10505 0.0883705 0  0.341988 0.0824728 0  0.253113 0.138035 0  0.291932 0.131907 0  0.203713 0.102439 0  0.150375 0.134668 0  0.151494 0.309119 0  0.354384 0.17896 0  0.06853670000000001 0.100776 0  0.424128 0.180088 0  0.474925 0.0568661 0  2.10843 0.347669 0  2.160735 0.2804525 0  2.160735 0.2292025 0  2.2 0.25625 0  2.079485 0.04184185 0  2.027105 0.04184185 0  2.04286 0 0  0.1767565 0.0338587 0  0.1243755 0.0338587 0  0.157143 0 0  0.08068065000000001 0.373905 0  0.03068065 0.373905 0  0.05 0.41 0  0.03068065 0.322655 0  0 0.35875 0  0.281851 0.3204655 0  0.2745195 0.3717915 0  0.3073315 0.358674 0  0.06741695 0.3024325 0  0.0367363 0.2872775 0  0.3071455 0.2720885 0  0.3258305 0.2495225 0  0.333348 0.284782 0  0.2557115 0.2995365 0  0.2885235 0.286419 0  2.075305 0.2742575 0  2.031365 0.244376 0  2.07753 0.2235235 0  2.01549 0.09473085000000001 0  1.978865 0.052889 0  2.00042 0.14971 0  2.04866 0.13866285 0  0.472869 0.2684665 0  0.4532065 0.2167285 0  0.5074514999999999 0.243648 0  2.16277 0.1778655 0  2.16277 0.1266155 0  2.2 0.15375 0  1.90667 0.171923 0  1.882505 0.2058935 0  1.857515 0.1534565 0  1.885835 0.263404 0  1.83668 0.2449375 0  0.6042925 0.1572095 0  0.647211 0.204279 0  0.6613485 0.1552195 0  0.3595855 0.3203035 0  0.3782705 0.2977375 0  0.155113 0.241194 0  0.1459625 0.2320435 0  0.1646446609406726 0.2353553390593274 0  0.259539 0.179205 0  0.2628885 0.191705 0  0.2482962819455563 0.1870590127797247 0  0.281006 0.2511595 0  1.0209025 0.1594405 0  1.05091 0.1998125 0  1.0157825 0.211881 0  1.264385 0.15009 0  1.23309 0.178102 0  1.271945 0.215407 0  1.291205 0.10101945 0  1.33006 0.13832445 0  0.928528 0.0477783 0  0.876147 0.0477783 0  0.890476 0 0  0.9025935 0.1431623 0  0.9499869999999999 0.1335328 0  0.9383815 0.1811385 0  0.867963 0.0989313 0  0.8563575 0.146537 0  0.8299110000000001 0.051153 0  1.411775 0.04462695 0  1.35939 0.04462695 0  1.414285 0 0  1.373865 0.14601045 0  1.347045 0.195081 0  1.418435 0.09520745 0  1.43542 0.151964 0  1.47333 0.0505805 0  0.7775300000000001 0.051153 0  0.785714 0 0  0.8115954999999999 0.1534955 0  0.8462259999999999 0.1977265 0  0.7734719999999999 0.1032895 0  0.7633405 0.154479 0  0.729275 0.0521365 0  1.52571 0.0505805 0  1.51905 0 0  1.489515 0.1529135 0  1.444945 0.2037165 0  1.531165 0.102042 0  1.54069 0.1537945 0  1.576885 0.0514615 0  1.9804 0.259735 0  1.982625 0.209001 0  1.820005 0.356224 0  1.870005 0.356224 0  1.85 0.41 0  1.78468 0.2610425 0  1.78135 0.203532 0  1.72289 0.370464 0  1.77289 0.370464 0  1.75 0.41 0  1.792895 0.316688 0  1.737565 0.2752825 0  1.62499 0.361919 0  1.67499 0.361919 0  1.65 0.41 0  1.69788 0.322383 0  1.689665 0.2667375 0  1.62618 0.2593945 0  1.665865 0.212294 0  0.6242105 0.3561835 0  0.6742105 0.3561835 0  0.6499999999999999 0.41 0  0.6192880000000001 0.254318 0  0.6763440000000001 0.252328 0  1.52272 0.359254 0  1.57272 0.359254 0  1.55 0.41 0  1.59771 0.311173 0  1.57391 0.2567295 0  1.52224 0.256587 0  1.55071 0.2048085 0  0.727843 0.358078 0  0.7778430000000001 0.358078 0  0.75 0.41 0  0.7020535 0.3042615 0  0.7299765 0.2542225 0  0.778575 0.2554205 0  0.7528655 0.203487 0  1.41334 0.3624045 0  1.46334 0.3624045 0  1.45 0.41 0  1.48606 0.3116585 0  1.46286 0.2597375 0  1.408765 0.258788 0  0.8352619999999999 0.354298 0  0.885262 0.354298 0  0.8500000000000001 0.41 0  0.813105 0.302376 0  0.8359939999999999 0.2516405 0  0.880756 0.244682 0  0.9346730000000001 0.3699335 0  0.984673 0.3699335 0  0.95 0.41 0  0.9199349999999999 0.3142315 0  0.676894 0.0521365 0  0.680952 0 0  0.714742 0.153281 0  0.6718235 0.1062115 0  0.6235005 0.054075 0  1.629265 0.0514615 0  1.62381 0 0  1.59236 0.153937 0  1.636375 0.1041235 0  1.646395 0.1551375 0  1.6833 0.052662 0  1.73568 0.052662 0  1.72857 0 0  1.70988 0.1624805 0  1.74293 0.105083 0  1.7624 0.1622395 0  1.7882 0.052421 0  1.84058 0.052421 0  1.83333 0 0  1.8144 0.1461345 0  1.838565 0.112164 0  1.883695 0.059743 0  1.124605 0.3624205 0  1.174605 0.3624205 0  1.15 0.41 0  1.314255 0.2318395 0  1.28296 0.2598515 0  1.35806 0.2395255 0  1.375975 0.2955465 0  1.92648 0.052889 0  1.938095 0 0  1.924465 0.112632 0  1.949455 0.165069 0  0.352254 0.3716295 0  0.402254 0.3716295 0  0.35 0.41 0  0.513557 0.352693 0  0.563557 0.352693 0  0.55 0.41 0  0.5877675 0.2988765 0  0.5586344999999999 0.2508275 0  0.538972 0.1990895 0  0.452254 0.3716295 0  0.45 0.41 0  0.465811 0.3143225 0  0.411566 0.287403 0  0.3853285 0.2518815 0  0.1199575 0.2145665 0  0.0890808 0.2285505 0  0.1043493 0.253071 0  0.2245195 0.3717915 0  0.25 0.41 0  0.291071 0.03723765 0  0.23869 0.03723765 0  0.261905 0 0  0.265876 0.2435355 0  0.2563345 0.2232905 0  0.2528425 0.245245 0  0.284498 0.229205 0  1.032465 0.11335505 0  0.9973375 0.12542355 0  0.9615494999999999 0.08744735000000001 0  0.9220055 0.218733 0  0.9693989999999999 0.2091035 0  0.9611845 0.2882825 0  0.9117735 0.272647 0  1.229265 0.371775 0  1.279265 0.371775 0  1.25 0.41 0  1.02634 0.375414 0  1.07634 0.375414 0  1.05 0.41 0  1.011013 0.3353475 0  2.11607 0.0336915 0  2.16845 0.0336915 0  2.14762 0 0  2.16845 0.0849415 0  2.2 0.05125 0  2.100315 0.07553335 0  0.5562765000000001 0.159403 0  0.570414 0.1103435 0  0.5050935 0.1522235 0  1.32105 0.3794645 0  1.37105 0.3794645 0  1.35 0.41 0  1.333685 0.3126065 0  1.38439 0.331869 0  0.9994065 0.2494755 0  1.007568 0.29106 0  1.300315 0.3412395 0  1.2919 0.304917 0  2.13122 0.109057 0  2.094635 0.11720735 0  0.2725725 0.2024955 0  0.259684 0.2107905 0  0.2482962819455563 0.2129409872202754 0  0.2877025 0.2101195 0  2.123505 0.202068 0  2.079565 0.1721865 0  1.02826 0.03966905 0  0.9758784999999999 0.03966905 0  0.9952384999999999 0 0  1.049235 0.2965405 0  1.100945 0.3278345 0  1.0975 0.283547 0  0.5711200000000001 0.054075 0  0.5761905 0 0  0.523104 0.0562685 0  1.24959 0.2884845 0  1.20387 0.3241955 0  1.19493 0.27913 0  0.238785 0.2774815 0  0.2321125 0.311528 0  0.226118 0.3344655 0  0.2015985 0.3726739999999999 0  1.144525 0.2527845 0  1.190245 0.2170735 0  1.092815 0.2214905 0  0.2091915 0.3124105 0  0.220093 0.266387 0  0.243692 0.2543955 0  0.2353553390593274 0.2353553390593274 0  0.478422 0.113732 0  0.4611175 0.1534185 0  1.919065 0.370252 0  1.969065 0.370252 0  1.95 0.41 0  1.983635 0.312807 0  2.01457 0.352555 0  1.88907 0.316476 0  1.934895 0.277432 0  1.182685 0.1517565 0  1.097935 0.16905 0  1.128715 0.04418525 0  1.076335 0.04418525 0  1.1 0 0  1.056975 0.08385429999999999 0  1.08054 0.11787125 0  1.122445 0.13954925 0  1.16529 0.10057775 0  0.304922 0.07847404999999999 0  0.328137 0.0412364 0  0.380518 0.0412364 0  0.366667 0 0  0.388217 0.09869990000000001 0  0.426747 0.0574635 0  0.31696 0.1071899 0  0.279894 0.10319115 0  0.2725225 0.134971 0  0.2604845 0.10625515 0  0.228413 0.120237 0  0.2143565 0.129569 0  0.2390565 0.147367 0  1.30701 0.04462695 0  1.30952 0 0  1.241335 0.0563925 0  0.2357845 0.08845715 0  1.188955 0.0563925 0  1.20476 0 0  0.2066185 0.0512195 0  0.173851 0.08507819999999999 0  0.0367363 0.2360275 0  0 0.25625 0  0.264445 0.1607225 0  0.248207 0.1565175 0  0.2353553390593274 0.1646446609406726 0  0.2838545 0.1576585 0  0.130694 0.182523 0  0.1273445 0.195023 0  0.1517037180544437 0.1870590127797247 0  0.127532 0.162357 0  0.153537 0.154834 0  0.0523445 0.197523 0  0
[...]
<PointData  Vectors="u"> 
<DataArray  type="Float64"  Name="u"  NumberOfComponents="3" format="ascii">0.0000000000000000e+00 0.0000000000000000e+00 0.0000000000000000e+00  0.0000000000000000e+00 0.0000000000000000e+00 0.0000000000000000e+00  0.0000000000000000e+00 0.0000000000000000e+00 0.0000000000000000e+00  0.0000000000000000e+00 0.0000000000000000e+00 0.0000000000000000e+00  0.0000000000000000e+00 0.0000000000000000e+00 0.0000000000000000e+00  0.0000000000000000e+00 0.0000000000000000e+00 0.0000000000000000e+00  0.0000000000000000e+00 7.6136224472222571e-16 0.0000000000000000e+00  0.0000000000000000e+00 0.0000000000000000e+00 0.0000000000000000e+00  0.0000000000000000e+00 0.0000000000000000e+00 0.0000000000000000e+00  0.0000000000000000e+00 8.5666136512283477e-16 0.0000000000000000e+00  0.0000000000000000e+00 0.0000000000000000e+00 0.0000000000000000e+00  0.0000000000000000e+00 -4.8879507855199027e-16 0.0000000000000000e+00  0.0000000000000000e+00 1.3426512041447594e-15 0.0000000000000000e+00  0.0000000000000000e+00 0.0000000000000000e+00 0.0000000000000000e+00  0.0000000000000000e+00 5.4694836544805292e-16 0.0000000000000000e+00  0.0000000000000000e+00 7.3516196791765939e-16 0.0000000000000000e+00  0.0000000000000000e+00 5.3925231300783001e-16 0.0000000000000000e+00  0.0000000000000000e+00 0.0000000000000000e+00 0.0000000000000000e+00  0.0000000000000000e+00 0.0000000000000000e+00 0.0000000000000000e+00  0.0000000000000000e+00 7.3901217387825858e-16 0.0000000000000000e+00  0.0000000000000000e+00 0.0000000000000000e+00 0.0000000000000000e+00  0.0000000000000000e+00 0.0000000000000000e+00 0.0000000000000000e+00  0.0000000000000000e+00 0.0000000000000000e+00 0.0000000000000000e+00  0.0000000000000000e+00 0.0000000000000000e+00 0.0000000000000000e+00  -4.2404319827956812e-16 -3.7408811035936428e-16 0.0000000000000000e+00  0.0000000000000000e+00 -4.4417706891525156e-16 0.0000000000000000e+00  0.0000000000000000e+00 0.0000000000000000e+00 0.0000000000000000e+00  0.0000000000000000e+00 0.0000000000000000e+00 0.0000000000000000e+00  1.1249999997622691e+00 5.9936679982241909e-10 0.0000000000000000e+00  1.5000000000008753e+00 1.0175274195536883e-09 0.0000000000000000e+00  1.1250000002378615e+00 5.9900946425496688e-10 0.0000000000000000e+00  -6.1272310992144608e-16 0.0000000000000000e+00 0.0000000000000000e+00  0.0000000000000000e+00 -1.4135950342205573e-15 0.0000000000000000e+00  0.0000000000000000e+00 0.0000000000000000e+00 0.0000000000000000e+00  0.0000000000000000e+00 -6.5772699568167008e-16 0.0000000000000000e+00  0.0000000000000000e+00 0.0000000000000000e+00 0.0000000000000000e+00  0.0000000000000000e+00 0.0000000000000000e+00 0.0000000000000000e+00  0.0000000000000000e+00 0.0000000000000000e+00 0.0000000000000000e+00  0.0000000000000000e+00 0.0000000000000000e+00 0.0000000000000000e+00  0.0000000000000000e+00 0.0000000000000000e+00 0.0000000000000000e+00  0.0000000000000000e+00 -4.7561094447160162e-16 0.0000000000000000e+00  0.0000000000000000e+00 0.0000000000000000e+00 0.0000000000000000e+00  0.0000000000000000e+00 5.0027216524311761e-16 0.0000000000000000e+00  0.0000000000000000e+00 4.8558413197534699e-16 0.0000000000000000e+00  0.0000000000000000e+00 0.0000000000000000e+00 0.0000000000000000e+00  0.0000000000000000e+00 3.7259603170154453e-16 0.0000000000000000e+00  0.0000000000000000e+00 0.0000000000000000e+00 0.0000000000000000e+00  0.0000000000000000e+00 0.0000000000000000e+00 0.0000000000000000e+00  0.0000000000000000e+00 0.0000000000000000e+00 0.0000000000000000e+00  0.0000000000000000e+00 -5.5413464454452645e-16 0.0000000000000000e+00  0.0000000000000000e+00 7.4033072403405748e-16 0.0000000000000000e+00  0.0000000000000000e+00 0.0000000000000000e+00 0.0000000000000000e+00  1.1250000000000007e+00 0.0000000000000000e+00 0.0000000000000000e+00  1.5000000000000016e+00 0.0000000000000000e+00 0.0000000000000000e+00  1.1250000000000040e+00 0.0000000000000000e+00 0.0000000000000000e+00  0.0000000000000000e+00 0.0000000000000000e+00 0.0000000000000000e+00  0.0000000000000000e+00 0.0000000000000000e+00 0.0000000000000000e+00  4.6342602754830446e-16 0.0000000000000000e+00 0.0000000000000000e+00  0.0000000000000000e+00 0.0000000000000000e+00 0.0000000000000000e+00  0.0000000000000000e+00 0.0000000000000000e+00 0.0000000000000000e+00  -3.3218101354800563e-16 0.0000000000000000e+00 0.0000000000000000e+00  0.0000000000000000e+00 0.0000000000000000e+00 0.0000000000000000e+00  -6.0378462634048844e-16 0.0000000000000000e+00 0.0000000000000000e+00  1.2560195266707521e+00 -3.3692730477959915e-01 0.0000000000000000e+00  1.4202930773174531e+00 5.1968066675273620e-05 0.0000000000000000e+00  1.4473196214155641e+00 -5.3974141829186108e-06 0.0000000000000000e+00  1.4599989210767785e+00 1.3927225459571624e-04 0.0000000000000000e+00  1.4889363954311512e+00 -4.9011754488526594e-06 0.0000000000000000e+00  1.4928515800385957e+00 4.7556140879667603e-04 0.0000000000000000e+00  1.4998219620734230e+00 -2.7387009350709638e-06 0.0000000000000000e+00  1.5000960651042754e+00 1.1286134628325977e-03 0.0000000000000000e+00  1.4999960152310823e+00 -9.0851388986443995e-07 0.0000000000000000e+00  1.4999602669338084e+00 1.9977096762808610e-03 0.0000000000000000e+00  1.4999999143958296e+00 -2.1579142785329635e-07 0.0000000000000000e+00  1.4577404485238317e+00 -4.5680867355731803e-03 0.0000000000000000e+00  1.4923530561518843e+00 -1.8615928669797594e-09 0.0000000000000000e+00  1.4889776244622617e+00 1.5707027357734788e-08 0.0000000000000000e+00  1.4953954496030137e+00 3.9296729354956289e-09 0.0000000000000000e+00  1.4341180622415584e+00 -4.3146443190840522e-01 0.0000000000000000e+00  1.7611152628299569e+00 -2.7566126448620693e-01 0.0000000000000000e+00  1.4163696358880273e+00 1.3979953692152211e-09 0.0000000000000000e+00  9.7468252438565994e-01 1.0914286213294801e-09 0.0000000000000000e+00  1.2769420551270820e+00 5.6885028445421693e-01 0.0000000000000000e+00  1.5511178627498170e+00 -2.9467599902300201e-01 0.0000000000000000e+00  1.0840847643641836e+00 2.9632305536998038e-01 0.0000000000000000e+00  8.2844004205661903e-01 -4.1578140257415230e-01 0.0000000000000000e+00  1.2096054252425279e+00 -2.2104385018982955e-02 0.0000000000000000e+00  1.1341056591044512e+00 -6.0903210960862963e-01 0.0000000000000000e+00  3.3832540036184666e-01 2.2175336647250429e-01 0.0000000000000000e+00  9.3398470248881416e-01 4.9587462647951966e-09 0.0000000000000000e+00  1.1610548550240616e+00 9.8794763480900970e-09 0.0000000000000000e+00  1.0771905900877849e+00 -3.5131084752278878e-08 0.0000000000000000e+00  1.1592012719685063e+00 4.2291917434103099e-04 0.0000000000000000e+00  1.1175883297485174e+00 -2.5091756849544640e-07 0.0000000000000000e+00  1.1334981572498239e+00 9.7143008982591755e-04 0.0000000000000000e+00  1.0696139506728934e+00 -9.4784033998260815e-07 0.0000000000000000e+00  1.1869658920642552e+00 3.9071274868597707e-04 0.0000000000000000e+00  1.1964733748173184e+00 -3.8533378781740615e-06 0.0000000000000000e+00  1.3814722401285584e+00 3.8346994919553517e-05 0.0000000000000000e+00  9.4340794844057396e-01 6.7898579276555752e-05 0.0000000000000000e+00  1.3186320889163221e+00 -3.4279092432127188e-06 0.0000000000000000e+00  1.2101792208200628e+00 2.5647021087852705e-09 0.0000000000000000e+00  1.2389895100254285e+00 9.2693819740424713e-09 0.0000000000000000e+00  1.1419408311427166e+00 9.8691147423684084e-09 0.0000000000000000e+00  1.0218120006021694e+00 -1.6159696764788275e-06 0.0000000000000000e+00  1.1453787819960781e+00 -1.1998270065928461e-08 0.0000000000000000e+00  1.0726602454581216e+00 1.6124257420488294e-04 0.0000000000000000e+00  1.1280886412505928e+00 -1.4714678504458141e-07 0.0000000000000000e+00  1.1688581230585451e+00 2.9444403662199818e-03 0.0000000000000000e+00  1.1151378453669207e+00 -5.7930753643524039e-07 0.0000000000000000e+00  1.1394723314194761e+00 1.0031002776943500e-03 0.0000000000000000e+00  1.1241948553772967e+00 4.5606921683171380e-04 0.0000000000000000e+00  1.1486018389195096e+00 4.1898399953493847e-09 0.0000000000000000e+00  1.3576137507230979e+00 -1.2423779316199821e-01 0.0000000000000000e+00  6.0381550571111675e-01 5.5231497306258415e-01 0.0000000000000000e+00  1.0693708129520596e+00 -3.9362385890656313e-07 0.0000000000000000e+00  1.0361450702522998e+00 -1.1949753935766312e-01 0.0000000000000000e+00  1.4966391488497137e+00 3.3723846604205370e-04 0.0000000000000000e+00  1.3948795591357968e+00 1.3000587233132298e-09 0.0000000000000000e+00  1.4866219040586754e+00 9.6771155317668275e-09 0.0000000000000000e+00  6.3039553926703396e-01 -9.8926024148314570e-02 0.0000000000000000e+00  1.5384579988734850e+00 3.2723494090036548e-01 0.0000000000000000e+00  3.1486532401560652e-01 -2.8978013597110086e-01 0.0000000000000000e+00  1.2162247257058676e+00 7.5585511497603938e-02 0.0000000000000000e+00  9.3640186545544390e-01 3.2259879820704529e-05 0.0000000000000000e+00  1.4378792488842369e+00 2.1860257524176105e-04 0.0000000000000000e+00  9.1017497918564372e-01 -2.3188693494169977e-06 0.0000000000000000e+00  8.4148712032535133e-01 1.2141432934946339e-05 0.0000000000000000e+00  8.2402955320314086e-01 3.8442092882523459e-10 0.0000000000000000e+00  1.2011137909329457e+00 1.5136286755142737e-02 0.0000000000000000e+00  7.6060148126653337e-01 -9.9700756984614121e-07 0.0000000000000000e+00  1.7089081003002968e+00 -1.9346737234193484e-01 0.0000000000000000e+00  1.9003493675298386e+00 -1.0940835577352591e-02 0.0000000000000000e+00  1.4927285331935425e+00 4.3041014601400465e-06 0.0000000000000000e+00  9.3778985601210996e-01 3.5247533934395703e-09 0.0000000000000000e+00  1.0144810144989200e+00 4.5286133877739854e-06 0.0000000000000000e+00  1.1833477644578005e+00 2.4830005058244758e-01 0.0000000000000000e+00  1.0005849630465053e+00 5.5022603474628795e-01 0.0000000000000000e+00  1.1407021580129149e+00 5.4066160081350956e-01 0.0000000000000000e+00  1.7599128298616986e+00 3.6547461713277635e-02 0.0000000000000000e+00  1.0948653487957825e+00 -5.6983543350766519e-01 0.0000000000000000e+00  1.7816734588301120e+00 4.6825936896186410e-01 0.0000000000000000e+00  1.1008937313223932e+00 9.0757171048899687e-02 0.0000000000000000e+00  1.2372616395258080e+00 -4.1841644356411478e-01 0.0000000000000000e+00  1.3609424217262449e+00 1.1385108512247794e-02 0.0000000000000000e+00  7.4456421725335620e-01 1.7716923268963600e-02 0.0000000000000000e+00  7.7348803426442181e-01 4.1229944625925817e-10 0.0000000000000000e+00  1.2967966772515480e+00 8.5787687538644273e-10 0.0000000000000000e+00  1.4790924090010427e+00 1.1236344081400583e-09 0.0000000000000000e+00  1.4062500000901759e+00 8.9979741396267084e-10 0.0000000000000000e+00  5.4983050940433031e-01 2.6369927996449914e-10 0.0000000000000000e+00  5.4983051025277430e-01 4.7706567222958317e-10 0.0000000000000000e+00  0.0000000000000000e+00 4.2693199407461986e-16 0.0000000000000000e+00  1.1527480091316056e+00 -4.9310336347987087e-02 0.0000000000000000e+00  9.2988614816755510e-01 -1.0722404431236571e-01 0.0000000000000000e+00  0.0000000000000000e+00 0.0000000000000000e+00 0.0000000000000000e+00  7.4177144384919280e-01 1.1482508460409936e-01 0.0000000000000000e+00  5.2816985436712094e-01 5.4907662201913149e-02 0.0000000000000000e+00  0.0000000000000000e+00 3.0349367478925542e-16 0.0000000000000000e+00  1.0644587213054266e+00 2.3180161283237891e-01 0.0000000000000000e+00  6.5624999999999956e-01 0.0000000000000000e+00 0.0000000000000000e+00  1.6064079068893546e+00 -4.1524812210905565e-01 0.0000000000000000e+00  1.0946064691023203e+00 -1.0853265021704696e-01 0.0000000000000000e+00  1.1452935483561562e+00 -1.7144311017455488e-01 0.0000000000000000e+00  1.3098267155029915e+00 4.9797961823785625e-01 0.0000000000000000e+00  1.2807372513292894e+00 3.6047157999871082e-01 0.0000000000000000e+00  1.2553742626045503e+00 -5.3398717627478121e-01 0.0000000000000000e+00  1.1076717692011193e+00 -3.9831030667630618e-01 0.0000000000000000e+00  1.3290700898521155e+00 -4.2298108167467618e-01 0.0000000000000000e+00  1.6820896301904402e+00 -4.9608462648003432e-01 0.0000000000000000e+00  1.4194970903334989e+00 -5.7603093602276789e-01 0.0000000000000000e+00  1.3287947173711230e+00 1.9380744638149005e-09 0.0000000000000000e+00  1.4446590335157217e+00 3.7232309207745609e-09 0.0000000000000000e+00  1.4877530019801466e+00 2.4512058050181360e-09 0.0000000000000000e+00  1.0659981428538010e+00 2.2330058624585641e-09 0.0000000000000000e+00  6.7414314474759018e-01 1.2158496258749765e-09 0.0000000000000000e+00  1.3908869471141749e+00 4.6506702004340379e-09 0.0000000000000000e+00  1.3429285867308574e+00 2.6342771936064225e-09 0.0000000000000000e+00  1.3430611341466603e+00 -6.4924306976417531e-02 0.0000000000000000e+00  1.4231638468810008e+00 -4.5554079099304409e-02 0.0000000000000000e+00  1.4278947780546294e+00 -2.7810665861726175e-02 0.0000000000000000e+00  1.4737198897571886e+00 1.1016196944696326e-09 0.0000000000000000e+00  1.2806973288053933e+00 8.2770623279811170e-10 0.0000000000000000e+00  1.4062499999114186e+00 8.9928912224827051e-10 0.0000000000000000e+00  1.4609486800552440e+00 1.1081107283545270e-08 0.0000000000000000e+00  1.4999715045900757e+00 1.3463710719177869e-08 0.0000000000000000e+00  1.4051731539110310e+00 1.3274422720409070e-08 0.0000000000000000e+00  1.3782500615531050e+00 1.1198042943809979e-08 0.0000000000000000e+00  1.4430694537152697e+00 1.4813886611601463e-08 0.0000000000000000e+00  1.4193988355214964e+00 3.6001607374652658e-03 0.0000000000000000e+00  1.4996255837817494e+00 1.9966051889771168e-03 0.0000000000000000e+00  1.4131674226381532e+00 2.3828808646595744e-03 0.0000000000000000e+00  1.2431030687011062e+00 -2.5089288993250775e-01 0.0000000000000000e+00  1.2791504203013961e+00 -2.4719807097408189e-01 0.0000000000000000e+00  4.0899736203624881e-01 3.6611422770144425e-01 0.0000000000000000e+00  3.1771168021768781e-01 3.8039837809282645e-01 0.0000000000000000e+00  0.0000000000000000e+00 -4.4797929980992787e-16 0.0000000000000000e+00  1.7738106487237235e-01 2.3218577164679588e-01 0.0000000000000000e+00  1.1213099570715906e-01 9.5449701915065868e-02 0.0000000000000000e+00  0.0000000000000000e+00 0.0000000000000000e+00 0.0000000000000000e+00  9.1012606328574619e-01 -5.6348850870282496e-01 0.0000000000000000e+00  1.4259336013338340e+00 7.7108545396311061e-05 0.0000000000000000e+00  1.4990413843343058e+00 5.3633524084713845e-05 0.0000000000000000e+00  1.4983081313335689e+00 9.7223876618292537e-05 0.0000000000000000e+00  1.3923776886271200e+00 -4.9445219702210482e-06 0.0000000000000000e+00  1.4741735612170772e+00 -5.4456805897447842e-06 0.0000000000000000e+00  1.4961349831548092e+00 -5.5521776593498250e-06 0.0000000000000000e+00  1.1140836594931138e+00 -2.9600585099212995e-06 0.0000000000000000e+00  1.3413192277624002e+00 -3.4278587827225445e-06 0.0000000000000000e+00  6.1780734017957728e-01 3.9402867080877950e-05 0.0000000000000000e+00  6.1791936071221776e-01 7.1937124313587066e-05 0.0000000000000000e+00  0.0000000000000000e+00 0.0000000000000000e+00 0.0000000000000000e+00  1.3637071227577418e+00 3.2763348280947184e-04 0.0000000000000000e+00  1.3177982659521916e+00 1.7181948250138352e-04 0.0000000000000000e+00  1.4797358745435463e+00 2.6894951510897987e-04 0.0000000000000000e+00  1.0987863597767020e+00 2.8027814755249210e-04 0.0000000000000000e+00  1.3783461234602414e+00 5.4228361371944664e-04 0.0000000000000000e+00  6.5557411956660061e-01 1.2805051795717075e-04 0.0000000000000000e+00  5.8199134962536558e-01 -3.0380477483079650e-07 0.0000000000000000e+00  5.8199051464444707e-01 -4.8934793609710338e-07 0.0000000000000000e+00  0.0000000000000000e+00 0.0000000000000000e+00 0.0000000000000000e+00  1.3757948789233314e+00 -2.6205783016870427e-06 0.0000000000000000e+00  1.4964878756349433e+00 -3.8255966461006328e-06 0.0000000000000000e+00  1.0697403349562766e+00 -1.0266483757972728e-06 0.0000000000000000e+00  1.3996012279304073e+00 -1.5570871165862431e-06 0.0000000000000000e+00  6.4888537529864665e-01 -1.9213893183099436e-07 0.0000000000000000e+00  6.5587928928058625e-01 1.9941580419240195e-04 0.0000000000000000e+00  0.0000000000000000e+00 0.0000000000000000e+00 0.0000000000000000e+00  1.4058477744757452e+00 8.5350061628016295e-04 0.0000000000000000e+00  1.4982131603499913e+00 7.5671318564791024e-04 0.0000000000000000e+00  1.1317796304218317e+00 6.8800816085371960e-04 0.0000000000000000e+00  1.4097508060160071e+00 1.2481959597204267e-03 0.0000000000000000e+00  6.6708285493400499e-01 2.9941575464790458e-04 0.0000000000000000e+00  6.4888564563644413e-01 -9.8313501943958046e-08 0.0000000000000000e+00  -5.0378975457452234e-16 3.3672545052943215e-16 0.0000000000000000e+00  1.4031642834168774e+00 -8.7092184183504079e-07 0.0000000000000000e+00  1.4999411808533272e+00 -1.6495460107000798e-06 0.0000000000000000e+00  1.1216410269082100e+00 -3.0818461590696419e-07 0.0000000000000000e+00  1.4064125667209784e+00 -4.6092151114451780e-07 0.0000000000000000e+00  6.5856968939219440e-01 -4.6351525691214151e-08 0.0000000000000000e+00  1.3930664969562876e+00 5.6324986792734451e-09 0.0000000000000000e+00  1.4994286255402189e+00 6.4716066278893410e-09 0.0000000000000000e+00  6.8374662841796607e-01 3.8381585536011584e-09 0.0000000000000000e+00  6.8374663381788536e-01 3.0563926513248874e-09 0.0000000000000000e+00  0.0000000000000000e+00 0.0000000000000000e+00 0.0000000000000000e+00  1.3878966492310552e+00 1.2709505289065129e-08 0.0000000000000000e+00  1.4999230810495978e+00 1.3455721259809660e-08 0.0000000000000000e+00  5.2278396491758938e-01 1.4279281003020982e-09 0.0000000000000000e+00  5.2278396882709255e-01 2.4263488379853017e-09 0.0000000000000000e+00  0.0000000000000000e+00 0.0000000000000000e+00 0.0000000000000000e+00  1.0547575269262814e+00 8.7220977674035054e-09 0.0000000000000000e+00  1.3236895778751530e+00 3.7183306061328876e-09 0.0000000000000000e+00  6.2110984095675070e-01 -1.5771017955857998e-08 0.0000000000000000e+00  6.2110982133761372e-01 -3.3040517995183780e-09 0.0000000000000000e+00  0.0000000000000000e+00 3.2530479169812516e-16 0.0000000000000000e+00  1.0081938365788798e+00 -4.8337120514882432e-09 0.0000000000000000e+00  1.3639552937653596e+00 -2.2686044445382589e-08 0.0000000000000000e+00  1.3943928271826107e+00 -1.1702975509717123e-07 0.0000000000000000e+00  1.4981010436019988e+00 -6.1686457318880142e-08 0.0000000000000000e+00  6.8185373800706062e-01 -2.0753471195213063e-04 0.0000000000000000e+00  6.8200889733623016e-01 4.0272034741457624e-04 0.0000000000000000e+00  0.0000000000000000e+00 0.0000000000000000e+00 0.0000000000000000e+00  1.4107511203310981e+00 -5.1923113869294687e-04 0.0000000000000000e+00  1.4187398354914447e+00 1.5806584318886604e-03 0.0000000000000000e+00  6.5070942300074774e-01 -1.0216753338196108e-07 0.0000000000000000e+00  6.5070928766652514e-01 -4.8227470045477394e-08 0.0000000000000000e+00  0.0000000000000000e+00 0.0000000000000000e+00 0.0000000000000000e+00  1.0976429190358137e+00 -1.0630575033281749e-07 0.0000000000000000e+00  1.4044876163030489e+00 -2.8604474982468616e-07 0.0000000000000000e+00  1.4050132480660764e+00 -5.8580486618809853e-07 0.0000000000000000e+00  1.4999986906371170e+00 -4.6935116981634723e-07 0.0000000000000000e+00  6.6214712810537224e-01 4.0890387529958570e-04 0.0000000000000000e+00  6.6271686649455208e-01 2.9561226877102979e-04 0.0000000000000000e+00  0.0000000000000000e+00 0.0000000000000000e+00 0.0000000000000000e+00  1.1464090203403869e+00 1.1541779455669229e-03 0.0000000000000000e+00  1.4126628374905028e+00 1.6160838733080961e-03 0.0000000000000000e+00  1.4086834166935067e+00 1.2367191355123924e-03 0.0000000000000000e+00  1.5001012567556526e+00 1.5861819068550688e-03 0.0000000000000000e+00  6.1566394319428219e-01 -3.3470673983923642e-07 0.0000000000000000e+00  6.1566344369144477e-01 -1.9430014051862492e-07 0.0000000000000000e+00  0.0000000000000000e+00 0.0000000000000000e+00 0.0000000000000000e+00  1.0939552547025433e+00 -5.1716708584835033e-07 0.0000000000000000e+00  1.3930572912879158e+00 -1.1578158193708211e-06 0.00000000000