<?xml version="1.0"?>
<VTKFile type="UnstructuredGrid"  version="0.1"  >
<UnstructuredGrid>
<Piece  NumberOfPoints="525" NumberOfCells="924">
<Points>
<DataArray  type="Float64"  NumberOfComponents="3"  format="ascii">0 0 0  2.2 0 0  2.2 0.41 0  0 0.41 0  0.15 0.2 0  0.25 0.2 0  0.2 0.15 0  0.2 0.25 0  0.104762 0 0  0.209524 0 0  0.314286 0 0  0.419048 0 0  0.52381 0 0  0.628571 0 0  0.733333 0 0  0.838095 0 0  0.9428569999999999 0 0  1.04762 0 0  1.15238 0 0  1.25714 0 0  1.3619 0 0  1.46667 0 0  1.57143 0 0  1.67619 0 0  1.78095 0 0  1.88571 0 0  1.99048 0 0  2.09524 0 0  2.2 0.1025 0  2.2 0.205 0  2.2 0.3075 0  2.1 0.41 0  2 0.41 0  1.9 0.41 0  1.8 0.41 0  1.7 0.41 0  1.6 0.41 0  1.5 0.41 0  1.4 0.41 0  1.3 0.41 0  1.2 0.41 0  1.1 0.41 0  1 0.41 0  0.9 0.41 0  0.8 0.41 0  0.7 0.41 0  0.6 0.41 0  0.5 0.41 0  0.4 0.41 0  0.3 0.41 0  0.2 0.41 0  0.1 0.41 0  0 0.3075 0  0 0.205 0  0 0.1025 0  0.1566987973585577 0.2250001169958213 0  0.1749998830041787 0.2433012026414423 0  0.2250001169958213 0.2433012026414423 0  0.2433012026414423 0.2250001169958213 0  0.2433012026414423 0.1749998830041787 0  0.2250001169958213 0.1566987973585577 0  0.1749998830041787 0.1566987973585577 0  0.1566987973585577 0.1749998830041787 0  0.352033 0.262216 0  1.04579 0.252253 0  1.24065 0.243419 0  0.985775 0.171509 0  1.30324 0.187395 0  0.890988 0.190768 0  1.39085 0.202767 0  0.801464 0.204685 0  1.49904 0.204666 0  0.704267 0.202289 0  1.60238 0.204951 0  0.487789 0.19191 0  1.72935 0.219637 0  1.83335 0.187427 0  2.03359 0.193642 0  0.314663 0.307348 0  0.249039 0.333583 0  2.12147 0.253405 0  2.06373 0.0836837 0  0.0734726 0.267055 0  0.143989 0.0677174 0  0.0613613 0.33781 0  0.299628 0.236829 0  0.527114 0.295386 0  0.262384 0.26549 0  0.275777 0.18341 0  1.74578 0.330928 0  1.84001 0.302448 0  1.64998 0.313838 0  0.648421 0.302367 0  1.54544 0.308508 0  0.755686 0.306156 0  1.42668 0.314809 0  0.870524 0.298596 0  1.22553 0.112785 0  1.05603 0.147372 0  0.969346 0.329867 0  1.32527 0.276284 0  2.02914 0.29511 0  1.88168 0.119486 0  1.79545 0.104842 0  1.35688 0.0892539 0  1.69041 0.105324 0  0.914199 0.09555660000000001 0  1.58234 0.102923 0  0.61843 0.10815 0  1.47999 0.101161 0  0.725217 0.104273 0  0.821727 0.102306 0  1.96725 0.105778 0  0.418624 0.241547 0  0.135226 0.239087 0  1.14921 0.314841 0  0.404508 0.333259 0  0.590155 0.206269 0  2.12554 0.150731 0  1.93166 0.22436 0  0.104689 0.190046 0  0.267856 0.07447529999999999 0  0.269368 0.221581 0  0.434446 0.114927 0  1.0089 0.07933809999999999 0  0.953023 0.246698 0  1.25853 0.33355 0  1.05268 0.340828 0  2.1369 0.067383 0  0.522398 0.112537 0  1.3421 0.348929 0  0.215186 0.289473 0  0.203197 0.335348 0  1.13984 0.190728 0  1.93813 0.330504 0  1.10505 0.0883705 0  0.341988 0.0824728 0  0.253113 0.138035 0  0.291932 0.131907 0  0.203713 0.102439 0  0.150375 0.134668 0  0.151494 0.309119 0  0.354384 0.17896 0  0.06853670000000001 0.100776 0  0.424128 0.180088 0  0.474925 0.0568661 0  2.10843 0.347669 0  2.160735 0.2804525 0  2.160735 0.2292025 0  2.2 0.25625 0  2.079485 0.04184185 0  2.027105 0.04184185 0  2.04286 0 0  0.1767565 0.0338587 0  0.1243755 0.0338587 0  0.157143 0 0  0.08068065000000001 0.373905 0  0.03068065 0.373905 0  0.05 0.41 0  0.03068065 0.322655 0  0 0.35875 0  0.281851 0.3204655 0  0.2745195 0.3717915 0  0.3073315 0.358674 0  0.06741695 0.3024325 0  0.0367363 0.2872775 0  0.3071455 0.2720885 0  0.3258305 0.2495225 0  0.333348 0.284782 0  0.2557115 0.2995365 0  0.2885235 0.286419 0  2.075305 0.2742575 0  2.031365 0.244376 0  2.07753 0.2235235 0  2.01549 0.09473085000000001 0  1.978865 0.052889 0  2.00042 0.14971 0  2.04866 0.13866285 0  0.472869 0.2684665 0  0.4532065 0.2167285 0  0.5074514999999999 0.243648 0  2.16277 0.1778655 0  2.16277 0.1266155 0  2.2 0.15375 0  1.90667 0.171923 0  1.882505 0.2058935 0  1.857515 0.1534565 0  1.885835 0.263404 0  1.83668 0.2449375 0  0.6042925 0.1572095 0  0.647211 0.204279 0  0.6613485 0.1552195 0  0.3595855 0.3203035 0  0.3782705 0.2977375 0  0.155113 0.241194 0  0.1459625 0.2320435 0  0.1646446609406726 0.2353553390593274 0  0.259539 0.179205 0  0.2628885 0.191705 0  0.2482962819455563 0.1870590127797247 0  0.281006 0.2511595 0  1.0209025 0.1594405 0  1.05091 0.1998125 0  1.0157825 0.211881 0  1.264385 0.15009 0  1.23309 0.178102 0  1.271945 0.215407 0  1.291205 0.10101945 0  1.33006 0.13832445 0  0.928528 0.0477783 0  0.876147 0.0477783 0  0.890476 0 0  0.9025935 0.1431623 0  0.9499869999999999 0.1335328 0  0.9383815 0.1811385 0  0.867963 0.0989313 0  0.8563575 0.146537 0  0.8299110000000001 0.051153 0  1.411775 0.04462695 0  1.35939 0.04462695 0  1.414285 0 0  1.373865 0.14601045 0  1.347045 0.195081 0  1.418435 0.09520745 0  1.43542 0.151964 0  1.47333 0.0505805 0  0.7775300000000001 0.051153 0  0.785714 0 0  0.8115954999999999 0.1534955 0  0.8462259999999999 0.1977265 0  0.7734719999999999 0.1032895 0  0.7633405 0.154479 0  0.729275 0.0521365 0  1.52571 0.0505805 0  1.51905 0 0  1.489515 0.1529135 0  1.444945 0.2037165 0  1.531165 0.102042 0  1.54069 0.1537945 0  1.576885 0.0514615 0  1.9804 0.259735 0  1.982625 0.209001 0  1.820005 0.356224 0  1.870005 0.356224 0  1.85 0.41 0  1.78468 0.2610425 0  1.78135 0.203532 0  1.72289 0.370464 0  1.77289 0.370464 0  1.75 0.41 0  1.792895 0.316688 0  1.737565 0.2752825 0  1.62499 0.361919 0  1.67499 0.361919 0  1.65 0.41 0  1.69788 0.322383 0  1.689665 0.2667375 0  1.62618 0.2593945 0  1.665865 0.212294 0  0.6242105 0.3561835 0  0.6742105 0.3561835 0  0.6499999999999999 0.41 0  0.6192880000000001 0.254318 0  0.6763440000000001 0.252328 0  1.52272 0.359254 0  1.57272 0.359254 0  1.55 0.41 0  1.59771 0.311173 0  1.57391 0.2567295 0  1.52224 0.256587 0  1.55071 0.2048085 0  0.727843 0.358078 0  0.7778430000000001 0.358078 0  0.75 0.41 0  0.7020535 0.3042615 0  0.7299765 0.2542225 0  0.778575 0.2554205 0  0.7528655 0.203487 0  1.41334 0.3624045 0  1.46334 0.3624045 0  1.45 0.41 0  1.48606 0.3116585 0  1.46286 0.2597375 0  1.408765 0.258788 0  0.8352619999999999 0.354298 0  0.885262 0.354298 0  0.8500000000000001 0.41 0  0.813105 0.302376 0  0.8359939999999999 0.2516405 0  0.880756 0.244682 0  0.9346730000000001 0.3699335 0  0.984673 0.3699335 0  0.95 0.41 0  0.9199349999999999 0.3142315 0  0.676894 0.0521365 0  0.680952 0 0  0.714742 0.153281 0  0.6718235 0.1062115 0  0.6235005 0.054075 0  1.629265 0.0514615 0  1.62381 0 0  1.59236 0.153937 0  1.636375 0.1041235 0  1.646395 0.1551375 0  1.6833 0.052662 0  1.73568 0.052662 0  1.72857 0 0  1.70988 0.1624805 0  1.74293 0.105083 0  1.7624 0.1622395 0  1.7882 0.052421 0  1.84058 0.052421 0  1.83333 0 0  1.8144 0.1461345 0  1.838565 0.112164 0  1.883695 0.059743 0  1.124605 0.3624205 0  1.174605 0.3624205 0  1.15 0.41 0  1.314255 0.2318395 0  1.28296 0.2598515 0  1.35806 0.2395255 0  1.375975 0.2955465 0  1.92648 0.052889 0  1.938095 0 0  1.924465 0.112632 0  1.949455 0.165069 0  0.352254 0.3716295 0  0.402254 0.3716295 0  0.35 0.41 0  0.513557 0.352693 0  0.563557 0.352693 0  0.55 0.41 0  0.5877675 0.2988765 0  0.5586344999999999 0.2508275 0  0.538972 0.1990895 0  0.452254 0.3716295 0  0.45 0.41 0  0.465811 0.3143225 0  0.411566 0.287403 0  0.3853285 0.2518815 0  0.1199575 0.2145665 0  0.0890808 0.2285505 0  0.1043493 0.253071 0  0.2245195 0.3717915 0  0.25 0.41 0  0.291071 0.03723765 0  0.23869 0.03723765 0  0.261905 0 0  0.265876 0.2435355 0  0.2563345 0.2232905 0  0.2528425 0.245245 0  0.284498 0.229205 0  1.032465 0.11335505 0  0.9973375 0.12542355 0  0.9615494999999999 0.08744735000000001 0  0.9220055 0.218733 0  0.9693989999999999 0.2091035 0  0.9611845 0.2882825 0  0.9117735 0.272647 0  1.229265 0.371775 0  1.279265 0.371775 0  1.25 0.41 0  1.02634 0.375414 0  1.07634 0.375414 0  1.05 0.41 0  1.011013 0.3353475 0  2.11607 0.0336915 0  2.16845 0.0336915 0  2.14762 0 0  2.16845 0.0849415 0  2.2 0.05125 0  2.100315 0.07553335 0  0.5562765000000001 0.159403 0  0.570414 0.1103435 0  0.5050935 0.1522235 0  1.32105 0.3794645 0  1.37105 0.3794645 0  1.35 0.41 0  1.333685 0.3126065 0  1.38439 0.331869 0  0.9994065 0.2494755 0  1.007568 0.29106 0  1.300315 0.3412395 0  1.2919 0.304917 0  2.13122 0.109057 0  2.094635 0.11720735 0  0.2725725 0.2024955 0  0.259684 0.2107905 0  0.2482962819455563 0.2129409872202754 0  0.2877025 0.2101195 0  2.123505 0.202068 0  2.079565 0.1721865 0  1.02826 0.03966905 0  0.9758784999999999 0.03966905 0  0.9952384999999999 0 0  1.049235 0.2965405 0  1.100945 0.3278345 0  1.0975 0.283547 0  0.5711200000000001 0.054075 0  0.5761905 0 0  0.523104 0.0562685 0  1.24959 0.2884845 0  1.20387 0.3241955 0  1.19493 0.27913 0  0.238785 0.2774815 0  0.2321125 0.311528 0  0.226118 0.3344655 0  0.2015985 0.3726739999999999 0  1.144525 0.2527845 0  1.190245 0.2170735 0  1.092815 0.2214905 0  0.2091915 0.3124105 0  0.220093 0.266387 0  0.243692 0.2543955 0  0.2353553390593274 0.2353553390593274 0  0.478422 0.113732 0  0.4611175 0.1534185 0  1.919065 0.370252 0  1.969065 0.370252 0  1.95 0.41 0  1.983635 0.312807 0  2.01457 0.352555 0  1.88907 0.316476 0  1.934895 0.277432 0  1.182685 0.1517565 0  1.097935 0.16905 0  1.128715 0.04418525 0  1.076335 0.04418525 0  1.1 0 0  1.056975 0.08385429999999999 0  1.08054 0.11787125 0  1.122445 0.13954925 0  1.16529 0.10057775 0  0.304922 0.07847404999999999 0  0.328137 0.0412364 0  0.380518 0.0412364 0  0.366667 0 0  0.388217 0.09869990000000001 0  0.426747 0.0574635 0  0.31696 0.1071899 0  0.279894 0.10319115 0  0.2725225 0.134971 0  0.2604845 0.10625515 0  0.228413 0.120237 0  0.2143565 0.129569 0  0.2390565 0.147367 0  1.30701 0.04462695 0  1.30952 0 0  1.241335 0.0563925 0  0.2357845 0.08845715 0  1.188955 0.0563925 0  1.20476 0 0  0.2066185 0.0512195 0  0.173851 0.08507819999999999 0  0.0367363 0.2360275 0  0 0.25625 0  0.264445 0.1607225 0  0.248207 0.1565175 0  0.2353553390593274 0.1646446609406726 0  0.2838545 0.1576585 0  0.130694 0.182523 0  0.1273445 0.195023 0  0.1517037180544437 0.1870590127797247 0  0.127532 0.162357 0  0.153537 0.154834 0  0.0523445 0.197523 0  0
[...]
<PointData  Vectors="u"> 
<DataArray  type="Float64"  Name="u"  NumberOfComponents="3" format="ascii">-9.7415617765697714e-16 -8.5452161488256566e-16 0.0000000000000000e+00  0.0000000000000000e+00 0.0000000000000000e+00 0.0000000000000000e+00  0.0000000000000000e+00 0.0000000000000000e+00 0.0000000000000000e+00  -7.6812630465578212e-16 0.0000000000000000e+00 0.0000000000000000e+00  0.0000000000000000e+00 0.0000000000000000e+00 0.0000000000000000e+00  0.0000000000000000e+00 0.0000000000000000e+00 0.0000000000000000e+00  0.0000000000000000e+00 5.5047292255260659e-16 0.0000000000000000e+00  0.0000000000000000e+00 0.0000000000000000e+00 0.0000000000000000e+00  0.0000000000000000e+00 0.0000000000000000e+00 0.0000000000000000e+00  0.0000000000000000e+00 -6.3834773866729624e-16 0.0000000000000000e+00  0.0000000000000000e+00 -3.4910026312330572e-16 0.0000000000000000e+00  0.0000000000000000e+00 -1.3946941963140413e-15 0.0000000000000000e+00  0.0000000000000000e+00 5.9537630642169607e-16 0.0000000000000000e+00  0.0000000000000000e+00 1.5057261265486983e-15 0.0000000000000000e+00  0.0000000000000000e+00 1.3152054786769465e-15 0.0000000000000000e+00  0.0000000000000000e+00 0.0000000000000000e+00 0.0000000000000000e+00  0.0000000000000000e+00 4.4961666449471803e-16 0.0000000000000000e+00  0.0000000000000000e+00 0.0000000000000000e+00 0.0000000000000000e+00  0.0000000000000000e+00 1.1521027256956351e-15 0.0000000000000000e+00  0.0000000000000000e+00 -5.6714561482064987e-16 0.0000000000000000e+00  0.0000000000000000e+00 0.0000000000000000e+00 0.0000000000000000e+00  0.0000000000000000e+00 0.0000000000000000e+00 0.0000000000000000e+00  1.0732595935824218e-15 3.5575590647509498e-16 0.0000000000000000e+00  -6.5198814138972759e-16 0.0000000000000000e+00 0.0000000000000000e+00  3.6974410978467624e-16 0.0000000000000000e+00 0.0000000000000000e+00  0.0000000000000000e+00 -9.9721844037348318e-16 0.0000000000000000e+00  0.0000000000000000e+00 -7.2587027678019041e-16 0.0000000000000000e+00  0.0000000000000000e+00 -3.7796361122427280e-16 0.0000000000000000e+00  1.1250000003556708e+00 3.0599111766202112e-10 0.0000000000000000e+00  1.5000000000001634e+00 4.9696612023707056e-10 0.0000000000000000e+00  1.1249999996445628e+00 3.0555465285939373e-10 0.0000000000000000e+00  0.0000000000000000e+00 0.0000000000000000e+00 0.0000000000000000e+00  0.0000000000000000e+00 3.3201848625337312e-16 0.0000000000000000e+00  -4.3052897713404689e-16 0.0000000000000000e+00 0.0000000000000000e+00  0.0000000000000000e+00 0.0000000000000000e+00 0.0000000000000000e+00  0.0000000000000000e+00 0.0000000000000000e+00 0.0000000000000000e+00  0.0000000000000000e+00 0.0000000000000000e+00 0.0000000000000000e+00  0.0000000000000000e+00 0.0000000000000000e+00 0.0000000000000000e+00  0.0000000000000000e+00 0.0000000000000000e+00 0.0000000000000000e+00  0.0000000000000000e+00 0.0000000000000000e+00 0.0000000000000000e+00  0.0000000000000000e+00 -3.6769965601228397e-16 0.0000000000000000e+00  0.0000000000000000e+00 0.0000000000000000e+00 0.0000000000000000e+00  0.0000000000000000e+00 6.3556345593913288e-16 0.0000000000000000e+00  0.0000000000000000e+00 0.0000000000000000e+00 0.0000000000000000e+00  0.0000000000000000e+00 0.0000000000000000e+00 0.0000000000000000e+00  0.0000000000000000e+00 7.1284719979701795e-16 0.0000000000000000e+00  0.0000000000000000e+00 0.0000000000000000e+00 0.0000000000000000e+00  0.0000000000000000e+00 0.0000000000000000e+00 0.0000000000000000e+00  0.0000000000000000e+00 0.0000000000000000e+00 0.0000000000000000e+00  0.0000000000000000e+00 -1.3545559341923875e-15 0.0000000000000000e+00  0.0000000000000000e+00 5.6774408512873193e-16 0.0000000000000000e+00  0.0000000000000000e+00 0.0000000000000000e+00 0.0000000000000000e+00  1.1249999999999991e+00 0.0000000000000000e+00 0.0000000000000000e+00  1.4999999999999984e+00 0.0000000000000000e+00 0.0000000000000000e+00  1.1249999999999989e+00 -5.1663946259024209e-16 0.0000000000000000e+00  0.0000000000000000e+00 0.0000000000000000e+00 0.0000000000000000e+00  8.3612640797283573e-16 -1.0451572431421287e-15 0.0000000000000000e+00  -6.3297385319724024e-16 0.0000000000000000e+00 0.0000000000000000e+00  0.0000000000000000e+00 0.0000000000000000e+00 0.0000000000000000e+00  0.0000000000000000e+00 0.0000000000000000e+00 0.0000000000000000e+00  0.0000000000000000e+00 0.0000000000000000e+00 0.0000000000000000e+00  0.0000000000000000e+00 0.0000000000000000e+00 0.0000000000000000e+00  0.0000000000000000e+00 0.0000000000000000e+00 0.0000000000000000e+00  1.2548539428654382e+00 -3.2735943354788916e-01 0.0000000000000000e+00  1.4202798252229887e+00 4.9592426455431571e-05 0.0000000000000000e+00  1.4473151451552686e+00 5.3293146668998493e-06 0.0000000000000000e+00  1.4599981163047668e+00 7.7670045601737318e-05 0.0000000000000000e+00  1.4889375219233056e+00 1.9313220395947180e-06 0.0000000000000000e+00  1.4928173860362264e+00 1.0002987577347086e-04 0.0000000000000000e+00  1.4998220104984972e+00 2.6417305803914406e-08 0.0000000000000000e+00  1.5000919449177275e+00 -7.6735112408110682e-05 0.0000000000000000e+00  1.4999960166019173e+00 -3.0212304756841284e-07 0.0000000000000000e+00  1.4999141477573783e+00 -1.1531714187914992e-03 0.0000000000000000e+00  1.4999999142686247e+00 -1.7385024137792343e-07 0.0000000000000000e+00  1.4590834630853886e+00 -8.1545001148770491e-03 0.0000000000000000e+00  1.4923530656732076e+00 -4.9252936582881392e-08 0.0000000000000000e+00  1.4889776195844784e+00 -1.1585938248335778e-08 0.0000000000000000e+00  1.4953954493982993e+00 7.7558659932915441e-10 0.0000000000000000e+00  1.4288899757716111e+00 -4.2954546239062541e-01 0.0000000000000000e+00  1.7559242726070692e+00 -2.7555846032706255e-01 0.0000000000000000e+00  1.4163696358129423e+00 5.9416755106829381e-10 0.0000000000000000e+00  9.7468252404403322e-01 3.7400922268968915e-10 0.0000000000000000e+00  1.2753964039452255e+00 5.6428135649608224e-01 0.0000000000000000e+00  1.5551676518939737e+00 -2.9593487200896412e-01 0.0000000000000000e+00  1.0826333282917138e+00 2.9462443423756862e-01 0.0000000000000000e+00  8.2730803358759786e-01 -4.1606898163340550e-01 0.0000000000000000e+00  1.2183575456128466e+00 -2.3625378101360950e-02 0.0000000000000000e+00  1.1319150087360137e+00 -6.1032775811841611e-01 0.0000000000000000e+00  3.3996895151275658e-01 2.2056101697964961e-01 0.0000000000000000e+00  9.3398474629206629e-01 -1.3749746140745191e-08 0.0000000000000000e+00  1.1610548732953074e+00 -5.4807791365535367e-09 0.0000000000000000e+00  1.0771906647316707e+00 -5.6358520188730979e-08 0.0000000000000000e+00  1.1628964199516993e+00 -2.1328633946558792e-03 0.0000000000000000e+00  1.1175883380916460e+00 -1.4191256603778317e-07 0.0000000000000000e+00  1.1346660782372480e+00 -7.3555707971097948e-05 0.0000000000000000e+00  1.0696132000141647e+00 -1.4933683688593187e-07 0.0000000000000000e+00  1.1871698342630643e+00 9.9382354624631328e-05 0.0000000000000000e+00  1.1964831269079930e+00 4.2220531653430797e-06 0.0000000000000000e+00  1.3814887745182654e+00 4.1350302378307095e-05 0.0000000000000000e+00  9.4340111759776002e-01 4.0874074272838255e-05 0.0000000000000000e+00  1.3186291282279088e+00 8.0942932113305394e-07 0.0000000000000000e+00  1.2101792219821155e+00 5.5930922139699736e-10 0.0000000000000000e+00  1.2389894990481027e+00 -2.8250259807013892e-09 0.0000000000000000e+00  1.1419408025347471e+00 -1.0922375342371586e-08 0.0000000000000000e+00  1.0218142063035833e+00 1.0381343203386543e-07 0.0000000000000000e+00  1.1453787201246528e+00 -4.2259543868901478e-08 0.0000000000000000e+00  1.0725893119717995e+00 4.7181287401684700e-05 0.0000000000000000e+00  1.1280885840372969e+00 -1.1225017914901003e-07 0.0000000000000000e+00  1.1638874696086632e+00 -6.3169590448552797e-04 0.0000000000000000e+00  1.1151380924337215e+00 -1.8364208342627244e-07 0.0000000000000000e+00  1.1377705466915113e+00 -4.5774109218350769e-04 0.0000000000000000e+00  1.1237270747061832e+00 -3.2696771268586750e-05 0.0000000000000000e+00  1.1486018353244445e+00 1.8553595023717547e-10 0.0000000000000000e+00  1.3677663675775491e+00 -1.0956229657318727e-01 0.0000000000000000e+00  6.0292664785070393e-01 5.5006769162942093e-01 0.0000000000000000e+00  1.0693519086054297e+00 9.0643574805023345e-06 0.0000000000000000e+00  1.0378211182653230e+00 -1.1497152819490107e-01 0.0000000000000000e+00  1.4973350481444814e+00 -6.0788489797084467e-03 0.0000000000000000e+00  1.3948795592432417e+00 5.6644018846728983e-10 0.0000000000000000e+00  1.4866219058124817e+00 -1.1914394383074724e-09 0.0000000000000000e+00  6.3123418468235226e-01 -1.0345375794920764e-01 0.0000000000000000e+00  1.5425387373417694e+00 3.2978177408667164e-01 0.0000000000000000e+00  3.1529927775397260e-01 -2.9300886850596936e-01 0.0000000000000000e+00  1.2048115530022991e+00 7.8310363556536977e-02 0.0000000000000000e+00  9.3642677358814452e-01 2.6009625609555755e-05 0.0000000000000000e+00  1.4378957119656430e+00 9.7360227238335289e-05 0.0000000000000000e+00  9.1016799301535289e-01 1.2523237546082769e-06 0.0000000000000000e+00  8.4145847294304343e-01 1.5610376796871775e-05 0.0000000000000000e+00  8.2402955357940000e-01 1.9898026666023828e-10 0.0000000000000000e+00  1.1912948432227870e+00 1.0524577084878381e-02 0.0000000000000000e+00  7.6059924368957132e-01 7.5491133878400275e-08 0.0000000000000000e+00  1.7055195273773140e+00 -1.9330568219826913e-01 0.0000000000000000e+00  1.8951144260154189e+00 -1.1134373195016726e-02 0.0000000000000000e+00  1.4927321572355283e+00 2.1488043806105998e-05 0.0000000000000000e+00  9.3778986121159325e-01 -7.9856347443249604e-11 0.0000000000000000e+00  1.0145056374786554e+00 1.3207598897873543e-05 0.0000000000000000e+00  1.1810661933675413e+00 2.5560543774165340e-01 0.0000000000000000e+00  1.0036381063603599e+00 5.5171557693286477e-01 0.0000000000000000e+00  1.1458041566863297e+00 5.4670308738503537e-01 0.0000000000000000e+00  1.7646965446941327e+00 3.6309587238979306e-02 0.0000000000000000e+00  1.0982977936898382e+00 -5.7221366710312516e-01 0.0000000000000000e+00  1.7770147574750361e+00 4.6656108143372754e-01 0.0000000000000000e+00  1.1097105873351918e+00 1.0974250384267048e-01 0.0000000000000000e+00  1.2389912165497523e+00 -4.2107635859110915e-01 0.0000000000000000e+00  1.3644923741409178e+00 2.3060901248422555e-02 0.0000000000000000e+00  7.3391714901625027e-01 1.6902442270296962e-02 0.0000000000000000e+00  7.7348803405058186e-01 1.9826047978449977e-10 0.0000000000000000e+00  1.2967966769078334e+00 4.2090863684036997e-10 0.0000000000000000e+00  1.4790924088867039e+00 5.3303433072704991e-10 0.0000000000000000e+00  1.4062499997459841e+00 4.4462645197490819e-10 0.0000000000000000e+00  5.4983050945755119e-01 1.1537567588869939e-10 0.0000000000000000e+00  5.4983050973165470e-01 1.3709610851880230e-10 0.0000000000000000e+00  0.0000000000000000e+00 -1.3391936924372722e-15 0.0000000000000000e+00  1.1560309090901779e+00 -4.9568056766069540e-02 0.0000000000000000e+00  9.3217546431469345e-01 -1.0768709189490318e-01 0.0000000000000000e+00  0.0000000000000000e+00 -1.0111898061944932e-15 0.0000000000000000e+00  7.4035673005763281e-01 1.1424452902770059e-01 0.0000000000000000e+00  5.2792027970702537e-01 5.4617849446385924e-02 0.0000000000000000e+00  0.0000000000000000e+00 9.4628628880622519e-16 0.0000000000000000e+00  1.0639829033513701e+00 2.3035303327854573e-01 0.0000000000000000e+00  6.5624999999999944e-01 0.0000000000000000e+00 0.0000000000000000e+00  1.6011466304625144e+00 -4.1486572141705791e-01 0.0000000000000000e+00  1.0907799433568157e+00 -1.0840969524794246e-01 0.0000000000000000e+00  1.1411291429051253e+00 -1.7081595809838249e-01 0.0000000000000000e+00  1.3080448032666327e+00 4.9476815739654334e-01 0.0000000000000000e+00  1.2801281142281307e+00 3.5769438060510322e-01 0.0000000000000000e+00  1.2510371487474270e+00 -5.3277794308165549e-01 0.0000000000000000e+00  1.1056903172600896e+00 -3.9337322758152915e-01 0.0000000000000000e+00  1.3246747705350230e+00 -4.1845684626889740e-01 0.0000000000000000e+00  1.6777922788968782e+00 -4.9624903755029981e-01 0.0000000000000000e+00  1.4148970880753116e+00 -5.7605784521769809e-01 0.0000000000000000e+00  1.3287947176624411e+00 6.3639590216355400e-10 0.0000000000000000e+00  1.4446590342037224e+00 7.3356681887832063e-10 0.0000000000000000e+00  1.4877530020794625e+00 7.7267972597187123e-10 0.0000000000000000e+00  1.0659981413562811e+00 4.3825539997385709e-10 0.0000000000000000e+00  6.7414314273609366e-01 1.5809157203475417e-10 0.0000000000000000e+00  1.3908869455035309e+00 5.3561688805268765e-10 0.0000000000000000e+00  1.3429285860626212e+00 6.7549153739957426e-10 0.0000000000000000e+00  1.3536057866193867e+00 -6.1472754917427090e-02 0.0000000000000000e+00  1.4320041547723958e+00 -3.9372419690591291e-02 0.0000000000000000e+00  1.4359837068138237e+00 -3.0537689714505201e-02 0.0000000000000000e+00  1.4737198898872617e+00 5.2549214622393837e-10 0.0000000000000000e+00  1.2806973291685415e+00 4.0859779721538408e-10 0.0000000000000000e+00  1.4062500002544236e+00 4.4475221743003845e-10 0.0000000000000000e+00  1.4609486760536827e+00 -2.4800264003579978e-09 0.0000000000000000e+00  1.4999715047442956e+00 -4.7534917712247010e-09 0.0000000000000000e+00  1.4051731435611876e+00 -6.5230555404952955e-09 0.0000000000000000e+00  1.3782500698739026e+00 -3.4602170096512995e-09 0.0000000000000000e+00  1.4430694639827193e+00 -1.0137408521010309e-08 0.0000000000000000e+00  1.4161031622611022e+00 -2.0925937623214649e-03 0.0000000000000000e+00  1.4997513673547942e+00 -2.8237862376423247e-03 0.0000000000000000e+00  1.4110300335735368e+00 -1.5702562366856970e-03 0.0000000000000000e+00  1.2403849019316404e+00 -2.4644681849048342e-01 0.0000000000000000e+00  1.2787483347970887e+00 -2.3917578685479529e-01 0.0000000000000000e+00  4.0865531012070822e-01 3.6559726888630317e-01 0.0000000000000000e+00  3.1736243517752966e-01 3.7940549215225777e-01 0.0000000000000000e+00  0.0000000000000000e+00 0.0000000000000000e+00 0.0000000000000000e+00  1.7770729435506827e-01 2.3106788675813286e-01 0.0000000000000000e+00  1.1243543230928230e-01 9.3261826872201636e-02 0.0000000000000000e+00  0.0000000000000000e+00 7.1355523096477440e-16 0.0000000000000000e+00  9.0822308370024252e-01 -5.6534344269954229e-01 0.0000000000000000e+00  1.4259431451050255e+00 5.8538143836822384e-05 0.0000000000000000e+00  1.4990427670870570e+00 5.2270751490444952e-05 0.0000000000000000e+00  1.4983066540793071e+00 6.9354902220944182e-05 0.0000000000000000e+00  1.3923825176712943e+00 3.3207967917870930e-06 0.0000000000000000e+00  1.4741769949050880e+00 6.2711349337519446e-06 0.0000000000000000e+00  1.4961340536605225e+00 3.5033067123319630e-06 0.0000000000000000e+00  1.1140887721217101e+00 1.1278769675436846e-06 0.0000000000000000e+00  1.3413219086767534e+00 7.6667793744037128e-07 0.0000000000000000e+00  6.1779665204696510e-01 1.5960641151403595e-05 0.0000000000000000e+00  6.1782401735631876e-01 1.2356036899790125e-05 0.0000000000000000e+00  0.0000000000000000e+00 5.2764461630601878e-16 0.0000000000000000e+00  1.3636144275072137e+00 7.6755298926173358e-05 0.0000000000000000e+00  1.3177739058017257e+00 7.1280499382313044e-05 0.0000000000000000e+00  1.4797174986135380e+00 9.8054458052296295e-05 0.0000000000000000e+00  1.0985760673159892e+00 3.1008747447200201e-05 0.0000000000000000e+00  1.3781299827003866e+00 4.0027610672397925e-05 0.0000000000000000e+00  6.5530507321049980e-01 -4.3715442431195495e-06 0.0000000000000000e+00  5.8199190845838678e-01 -5.1683975971705672e-08 0.0000000000000000e+00  5.8199186327240682e-01 1.5157838840462859e-09 0.0000000000000000e+00  -5.4750566156115562e-16 0.0000000000000000e+00 0.0000000000000000e+00  1.3757962696598365e+00 1.4069684084697927e-07 0.0000000000000000e+00  1.4964882555170518e+00 6.5963063442073445e-07 0.0000000000000000e+00  1.0697412044908803e+00 -1.3426202927730449e-07 0.0000000000000000e+00  1.3996017289034772e+00 -2.2517609307786766e-07 0.0000000000000000e+00  6.4888551726634647e-01 -6.8059120013501824e-08 0.0000000000000000e+00  6.5525376022627635e-01 -5.6178767182046667e-05 0.0000000000000000e+00  0.0000000000000000e+00 5.9836407927749135e-16 0.0000000000000000e+00  1.4054556893785444e+00 -7.0173428724072581e-05 0.0000000000000000e+00  1.4981746253551464e+00 5.6310207108145441e-05 0.0000000000000000e+00  1.1308451162418727e+00 -1.8682750259570860e-04 0.0000000000000000e+00  1.4090218890353718e+00 -3.3811252929504345e-04 0.0000000000000000e+00  6.6585953426637967e-01 -1.4877052425988903e-04 0.0000000000000000e+00  6.4888562587663134e-01 -5.4410133124882470e-08 0.0000000000000000e+00  0.0000000000000000e+00 0.0000000000000000e+00 0.0000000000000000e+00  1.4031644479136085e+00 -2.7274893081019330e-07 0.0000000000000000e+00  1.4999411938019211e+00 -2.6794528769746664e-07 0.0000000000000000e+00  1.1216410521672151e+00 -1.5470494514200509e-07 0.0000000000000000e+00  1.4064125897406510e+00 -2.2943072403375423e-07 0.0000000000000000e+00  6.5856961874787445e-01 -3.9050151798364394e-08 0.0000000000000000e+00  1.3930664991756587e+00 3.0918074618245424e-10 0.0000000000000000e+00  1.4994286257211495e+00 3.1636055920209206e-10 0.0000000000000000e+00  6.8374664668252871e-01 -2.1956054628246937e-09 0.0000000000000000e+00  6.8374664406563135e-01 -7.8689980591274366e-10 0.0000000000000000e+00  0.0000000000000000e+00 0.0000000000000000e+00 0.0000000000000000e+00  1.3878966714516328e+00 -2.0383908466531526e-08 0.0000000000000000e+00  1.4999230804297274e+00 -2.5727114033910312e-08 0.0000000000000000e+00  5.2278400188769403e-01 -5.2591980161694739e-09 0.0000000000000000e+00  5.2278399265296571e-01 -2.6063037855883498e-09 0.0000000000000000e+00  0.0000000000000000e+00 0.0000000000000000e+00 0.0000000000000000e+00  1.0547575565916425e+00 -9.3656230741260468e-09 0.0000000000000000e+00  1.3236896160323799e+00 -3.3764206681301359e-08 0.0000000000000000e+00  6.2110991316176023e-01 -2.2545547862078152e-08 0.0000000000000000e+00  6.2110987974107223e-01 -1.3413319566053489e-08 0.0000000000000000e+00  0.0000000000000000e+00 4.2908262628314782e-16 0.0000000000000000e+00  1.0081938983273264e+00 -2.9345900891812331e-08 0.0000000000000000e+00  1.3639553390452510e+00 -6.2796285423667236e-08 0.0000000000000000e+00  1.3943928708947955e+00 -1.2237550826989844e-07 0.0000000000000000e+00  1.4981010497399505e+00 -9.8902940908169922e-08 0.0000000000000000e+00  6.8549546124025562e-01 -1.1201355737617495e-03 0.0000000000000000e+00  6.8430161579956428e-01 -3.1469760157012494e-04 0.0000000000000000e+00  0.0000000000000000e+00 0.0000000000000000e+00 0.0000000000000000e+00  1.4141262995966650e+00 -5.1736323747849826e-03 0.0000000000000000e+00  1.4206035678902278e+00 -1.8190535120990127e-03 0.0000000000000000e+00  6.5070943752057686e-01 -5.5495323687783178e-08 0.0000000000000000e+00  6.5070935643417982e-01 -3.9340291189023420e-08 0.0000000000000000e+00  0.0000000000000000e+00 0.0000000000000000e+00 0.0000000000000000e+00  1.0976429882550069e+00 -9.4104550546662600e-08 0.0000000000000000e+00  1.4044876345459141e+00 -1.8712872428804238e-07 0.0000000000000000e+00  1.4050131873026717e+00 -2.5010218666381499e-07 0.0000000000000000e+00  1.4999986904245515e+00 -2.4646485111737422e-07 0.0000000000000000e+00  6.6337681625365952e-01 -2.7103576602582170e-05 0.0000000000000000e+00  6.6335002066021898e-01 3.4788534274680940e-05 0.0000000000000000e+00  0.0000000000000000e+00 0.0000000000000000e+00 0.0000000000000000e+00  1.1485805335098451e+00 -5.8790347626530158e-04 0.0000000000000000e+00  1.4137317034396772e+00 -5.5974412898416345e-04 0.0000000000000000e+00  1.4092831744111853e+00 -1.0230924771245244e-04 0.0000000000000000e+00  1.5000804999186452e+00 -4.3112199998285251e-04 0.0000000000000000e+00  6.1566336707843605e-01 -5.7168067487482646e-08 0.0000000000000000e+00  6.1566326334730803e-01 -6.3475290019491920e-08 0.0000000000000000e+00  0.0000000000000000e+00 0.0000000000000000e+00 0.0000000000000000e+00  1.0939550476511706e+00 -1.7611765196300483e-07 0.0000000000000000e+00  1.3930569844507610e+00 -2.