<?xml version="1.0"?>
<VTKFile type="UnstructuredGrid"  version="0.1"  >
<UnstructuredGrid>
<Piece  NumberOfPoints="525" NumberOfCells="924">
<Points>
<DataArray  type="Float64"  NumberOfComponents="3"  format="ascii">0 0 0  2.2 0 0  2.2 0.41 0  0 0.41 0  0.15 0.2 0  0.25 0.2 0  0.2 0.15 0  0.2 0.25 0  0.104762 0 0  0.209524 0 0  0.314286 0 0  0.419048 0 0  0.52381 0 0  0.628571 0 0  0.733333 0 0  0.838095 0 0  0.9428569999999999 0 0  1.04762 0 0  1.15238 0 0  1.25714 0 0  1.3619 0 0  1.46667 0 0  1.57143 0 0  1.67619 0 0  1.78095 0 0  1.88571 0 0  1.99048 0 0  2.09524 0 0  2.2 0.1025 0  2.2 0.205 0  2.2 0.3075 0  2.1 0.41 0  2 0.41 0  1.9 0.41 0  1.8 0.41 0  1.7 0.41 0  1.6 0.41 0  1.5 0.41 0  1.4 0.41 0  1.3 0.41 0  1.2 0.41 0  1.1 0.41 0  1 0.41 0  0.9 0.41 0  0.8 0.41 0  0.7 0.41 0  0.6 0.41 0  0.5 0.41 0  0.4 0.41 0  0.3 0.41 0  0.2 0.41 0  0.1 0.41 0  0 0.3075 0  0 0.205 0  0 0.1025 0  0.1566987973585577 0.2250001169958213 0  0.1749998830041787 0.2433012026414423 0  0.2250001169958213 0.2433012026414423 0  0.2433012026414423 0.2250001169958213 0  0.2433012026414423 0.1749998830041787 0  0.2250001169958213 0.1566987973585577 0  0.1749998830041787 0.1566987973585577 0  0.1566987973585577 0.1749998830041787 0  0.352033 0.262216 0  1.04579 0.252253 0  1.24065 0.243419 0  0.985775 0.171509 0  1.30324 0.187395 0  0.890988 0.190768 0  1.39085 0.202767 0  0.801464 0.204685 0  1.49904 0.204666 0  0.704267 0.202289 0  1.60238 0.204951 0  0.487789 0.19191 0  1.72935 0.219637 0  1.83335 0.187427 0  2.03359 0.193642 0  0.314663 0.307348 0  0.249039 0.333583 0  2.12147 0.253405 0  2.06373 0.0836837 0  0.0734726 0.267055 0  0.143989 0.0677174 0  0.0613613 0.33781 0  0.299628 0.236829 0  0.527114 0.295386 0  0.262384 0.26549 0  0.275777 0.18341 0  1.74578 0.330928 0  1.84001 0.302448 0  1.64998 0.313838 0  0.648421 0.302367 0  1.54544 0.308508 0  0.755686 0.306156 0  1.42668 0.314809 0  0.870524 0.298596 0  1.22553 0.112785 0  1.05603 0.147372 0  0.969346 0.329867 0  1.32527 0.276284 0  2.02914 0.29511 0  1.88168 0.119486 0  1.79545 0.104842 0  1.35688 0.0892539 0  1.69041 0.105324 0  0.914199 0.09555660000000001 0  1.58234 0.102923 0  0.61843 0.10815 0  1.47999 0.101161 0  0.725217 0.104273 0  0.821727 0.102306 0  1.96725 0.105778 0  0.418624 0.241547 0  0.135226 0.239087 0  1.14921 0.314841 0  0.404508 0.333259 0  0.590155 0.206269 0  2.12554 0.150731 0  1.93166 0.22436 0  0.104689 0.190046 0  0.267856 0.07447529999999999 0  0.269368 0.221581 0  0.434446 0.114927 0  1.0089 0.07933809999999999 0  0.953023 0.246698 0  1.25853 0.33355 0  1.05268 0.340828 0  2.1369 0.067383 0  0.522398 0.112537 0  1.3421 0.348929 0  0.215186 0.289473 0  0.203197 0.335348 0  1.13984 0.190728 0  1.93813 0.330504 0  1.10505 0.0883705 0  0.341988 0.0824728 0  0.253113 0.138035 0  0.291932 0.131907 0  0.203713 0.102439 0  0.150375 0.134668 0  0.151494 0.309119 0  0.354384 0.17896 0  0.06853670000000001 0.100776 0  0.424128 0.180088 0  0.474925 0.0568661 0  2.10843 0.347669 0  2.160735 0.2804525 0  2.160735 0.2292025 0  2.2 0.25625 0  2.079485 0.04184185 0  2.027105 0.04184185 0  2.04286 0 0  0.1767565 0.0338587 0  0.1243755 0.0338587 0  0.157143 0 0  0.08068065000000001 0.373905 0  0.03068065 0.373905 0  0.05 0.41 0  0.03068065 0.322655 0  0 0.35875 0  0.281851 0.3204655 0  0.2745195 0.3717915 0  0.3073315 0.358674 0  0.06741695 0.3024325 0  0.0367363 0.2872775 0  0.3071455 0.2720885 0  0.3258305 0.2495225 0  0.333348 0.284782 0  0.2557115 0.2995365 0  0.2885235 0.286419 0  2.075305 0.2742575 0  2.031365 0.244376 0  2.07753 0.2235235 0  2.01549 0.09473085000000001 0  1.978865 0.052889 0  2.00042 0.14971 0  2.04866 0.13866285 0  0.472869 0.2684665 0  0.4532065 0.2167285 0  0.5074514999999999 0.243648 0  2.16277 0.1778655 0  2.16277 0.1266155 0  2.2 0.15375 0  1.90667 0.171923 0  1.882505 0.2058935 0  1.857515 0.1534565 0  1.885835 0.263404 0  1.83668 0.2449375 0  0.6042925 0.1572095 0  0.647211 0.204279 0  0.6613485 0.1552195 0  0.3595855 0.3203035 0  0.3782705 0.2977375 0  0.155113 0.241194 0  0.1459625 0.2320435 0  0.1646446609406726 0.2353553390593274 0  0.259539 0.179205 0  0.2628885 0.191705 0  0.2482962819455563 0.1870590127797247 0  0.281006 0.2511595 0  1.0209025 0.1594405 0  1.05091 0.1998125 0  1.0157825 0.211881 0  1.264385 0.15009 0  1.23309 0.178102 0  1.271945 0.215407 0  1.291205 0.10101945 0  1.33006 0.13832445 0  0.928528 0.0477783 0  0.876147 0.0477783 0  0.890476 0 0  0.9025935 0.1431623 0  0.9499869999999999 0.1335328 0  0.9383815 0.1811385 0  0.867963 0.0989313 0  0.8563575 0.146537 0  0.8299110000000001 0.051153 0  1.411775 0.04462695 0  1.35939 0.04462695 0  1.414285 0 0  1.373865 0.14601045 0  1.347045 0.195081 0  1.418435 0.09520745 0  1.43542 0.151964 0  1.47333 0.0505805 0  0.7775300000000001 0.051153 0  0.785714 0 0  0.8115954999999999 0.1534955 0  0.8462259999999999 0.1977265 0  0.7734719999999999 0.1032895 0  0.7633405 0.154479 0  0.729275 0.0521365 0  1.52571 0.0505805 0  1.51905 0 0  1.489515 0.1529135 0  1.444945 0.2037165 0  1.531165 0.102042 0  1.54069 0.1537945 0  1.576885 0.0514615 0  1.9804 0.259735 0  1.982625 0.209001 0  1.820005 0.356224 0  1.870005 0.356224 0  1.85 0.41 0  1.78468 0.2610425 0  1.78135 0.203532 0  1.72289 0.370464 0  1.77289 0.370464 0  1.75 0.41 0  1.792895 0.316688 0  1.737565 0.2752825 0  1.62499 0.361919 0  1.67499 0.361919 0  1.65 0.41 0  1.69788 0.322383 0  1.689665 0.2667375 0  1.62618 0.2593945 0  1.665865 0.212294 0  0.6242105 0.3561835 0  0.6742105 0.3561835 0  0.6499999999999999 0.41 0  0.6192880000000001 0.254318 0  0.6763440000000001 0.252328 0  1.52272 0.359254 0  1.57272 0.359254 0  1.55 0.41 0  1.59771 0.311173 0  1.57391 0.2567295 0  1.52224 0.256587 0  1.55071 0.2048085 0  0.727843 0.358078 0  0.7778430000000001 0.358078 0  0.75 0.41 0  0.7020535 0.3042615 0  0.7299765 0.2542225 0  0.778575 0.2554205 0  0.7528655 0.203487 0  1.41334 0.3624045 0  1.46334 0.3624045 0  1.45 0.41 0  1.48606 0.3116585 0  1.46286 0.2597375 0  1.408765 0.258788 0  0.8352619999999999 0.354298 0  0.885262 0.354298 0  0.8500000000000001 0.41 0  0.813105 0.302376 0  0.8359939999999999 0.2516405 0  0.880756 0.244682 0  0.9346730000000001 0.3699335 0  0.984673 0.3699335 0  0.95 0.41 0  0.9199349999999999 0.3142315 0  0.676894 0.0521365 0  0.680952 0 0  0.714742 0.153281 0  0.6718235 0.1062115 0  0.6235005 0.054075 0  1.629265 0.0514615 0  1.62381 0 0  1.59236 0.153937 0  1.636375 0.1041235 0  1.646395 0.1551375 0  1.6833 0.052662 0  1.73568 0.052662 0  1.72857 0 0  1.70988 0.1624805 0  1.74293 0.105083 0  1.7624 0.1622395 0  1.7882 0.052421 0  1.84058 0.052421 0  1.83333 0 0  1.8144 0.1461345 0  1.838565 0.112164 0  1.883695 0.059743 0  1.124605 0.3624205 0  1.174605 0.3624205 0  1.15 0.41 0  1.314255 0.2318395 0  1.28296 0.2598515 0  1.35806 0.2395255 0  1.375975 0.2955465 0  1.92648 0.052889 0  1.938095 0 0  1.924465 0.112632 0  1.949455 0.165069 0  0.352254 0.3716295 0  0.402254 0.3716295 0  0.35 0.41 0  0.513557 0.352693 0  0.563557 0.352693 0  0.55 0.41 0  0.5877675 0.2988765 0  0.5586344999999999 0.2508275 0  0.538972 0.1990895 0  0.452254 0.3716295 0  0.45 0.41 0  0.465811 0.3143225 0  0.411566 0.287403 0  0.3853285 0.2518815 0  0.1199575 0.2145665 0  0.0890808 0.2285505 0  0.1043493 0.253071 0  0.2245195 0.3717915 0  0.25 0.41 0  0.291071 0.03723765 0  0.23869 0.03723765 0  0.261905 0 0  0.265876 0.2435355 0  0.2563345 0.2232905 0  0.2528425 0.245245 0  0.284498 0.229205 0  1.032465 0.11335505 0  0.9973375 0.12542355 0  0.9615494999999999 0.08744735000000001 0  0.9220055 0.218733 0  0.9693989999999999 0.2091035 0  0.9611845 0.2882825 0  0.9117735 0.272647 0  1.229265 0.371775 0  1.279265 0.371775 0  1.25 0.41 0  1.02634 0.375414 0  1.07634 0.375414 0  1.05 0.41 0  1.011013 0.3353475 0  2.11607 0.0336915 0  2.16845 0.0336915 0  2.14762 0 0  2.16845 0.0849415 0  2.2 0.05125 0  2.100315 0.07553335 0  0.5562765000000001 0.159403 0  0.570414 0.1103435 0  0.5050935 0.1522235 0  1.32105 0.3794645 0  1.37105 0.3794645 0  1.35 0.41 0  1.333685 0.3126065 0  1.38439 0.331869 0  0.9994065 0.2494755 0  1.007568 0.29106 0  1.300315 0.3412395 0  1.2919 0.304917 0  2.13122 0.109057 0  2.094635 0.11720735 0  0.2725725 0.2024955 0  0.259684 0.2107905 0  0.2482962819455563 0.2129409872202754 0  0.2877025 0.2101195 0  2.123505 0.202068 0  2.079565 0.1721865 0  1.02826 0.03966905 0  0.9758784999999999 0.03966905 0  0.9952384999999999 0 0  1.049235 0.2965405 0  1.100945 0.3278345 0  1.0975 0.283547 0  0.5711200000000001 0.054075 0  0.5761905 0 0  0.523104 0.0562685 0  1.24959 0.2884845 0  1.20387 0.3241955 0  1.19493 0.27913 0  0.238785 0.2774815 0  0.2321125 0.311528 0  0.226118 0.3344655 0  0.2015985 0.3726739999999999 0  1.144525 0.2527845 0  1.190245 0.2170735 0  1.092815 0.2214905 0  0.2091915 0.3124105 0  0.220093 0.266387 0  0.243692 0.2543955 0  0.2353553390593274 0.2353553390593274 0  0.478422 0.113732 0  0.4611175 0.1534185 0  1.919065 0.370252 0  1.969065 0.370252 0  1.95 0.41 0  1.983635 0.312807 0  2.01457 0.352555 0  1.88907 0.316476 0  1.934895 0.277432 0  1.182685 0.1517565 0  1.097935 0.16905 0  1.128715 0.04418525 0  1.076335 0.04418525 0  1.1 0 0  1.056975 0.08385429999999999 0  1.08054 0.11787125 0  1.122445 0.13954925 0  1.16529 0.10057775 0  0.304922 0.07847404999999999 0  0.328137 0.0412364 0  0.380518 0.0412364 0  0.366667 0 0  0.388217 0.09869990000000001 0  0.426747 0.0574635 0  0.31696 0.1071899 0  0.279894 0.10319115 0  0.2725225 0.134971 0  0.2604845 0.10625515 0  0.228413 0.120237 0  0.2143565 0.129569 0  0.2390565 0.147367 0  1.30701 0.04462695 0  1.30952 0 0  1.241335 0.0563925 0  0.2357845 0.08845715 0  1.188955 0.0563925 0  1.20476 0 0  0.2066185 0.0512195 0  0.173851 0.08507819999999999 0  0.0367363 0.2360275 0  0 0.25625 0  0.264445 0.1607225 0  0.248207 0.1565175 0  0.2353553390593274 0.1646446609406726 0  0.2838545 0.1576585 0  0.130694 0.182523 0  0.1273445 0.195023 0  0.1517037180544437 0.1870590127797247 0  0.127532 0.162357 0  0.153537 0.154834 0  0.0523445 0.197523 0  0
[...]
<PointData  Vectors="u"> 
<DataArray  type="Float64"  Name="u"  NumberOfComponents="3" format="ascii">-1.1995433369551958e-15 0.0000000000000000e+00 0.0000000000000000e+00  0.0000000000000000e+00 0.0000000000000000e+00 0.0000000000000000e+00  0.0000000000000000e+00 0.0000000000000000e+00 0.0000000000000000e+00  0.0000000000000000e+00 -6.7466566535270343e-16 0.0000000000000000e+00  0.0000000000000000e+00 0.0000000000000000e+00 0.0000000000000000e+00  0.0000000000000000e+00 0.0000000000000000e+00 0.0000000000000000e+00  0.0000000000000000e+00 0.0000000000000000e+00 0.0000000000000000e+00  0.0000000000000000e+00 0.0000000000000000e+00 0.0000000000000000e+00  0.0000000000000000e+00 4.2801618280052898e-16 0.0000000000000000e+00  0.0000000000000000e+00 7.8752642026812194e-16 0.0000000000000000e+00  0.0000000000000000e+00 3.0580752083317979e-16 0.0000000000000000e+00  0.0000000000000000e+00 1.0648546443386278e-15 0.0000000000000000e+00  0.0000000000000000e+00 -4.7629881007705809e-16 0.0000000000000000e+00  0.0000000000000000e+00 6.1831020233746867e-16 0.0000000000000000e+00  0.0000000000000000e+00 0.0000000000000000e+00 0.0000000000000000e+00  0.0000000000000000e+00 -4.7519050063048716e-16 0.0000000000000000e+00  0.0000000000000000e+00 -4.6640895628186664e-16 0.0000000000000000e+00  0.0000000000000000e+00 0.0000000000000000e+00 0.0000000000000000e+00  0.0000000000000000e+00 0.0000000000000000e+00 0.0000000000000000e+00  0.0000000000000000e+00 -4.1230741241923475e-16 0.0000000000000000e+00  0.0000000000000000e+00 0.0000000000000000e+00 0.0000000000000000e+00  0.0000000000000000e+00 0.0000000000000000e+00 0.0000000000000000e+00  -6.2115141036009231e-16 0.0000000000000000e+00 0.0000000000000000e+00  2.2351713921636476e-15 -3.9550217078978582e-16 0.0000000000000000e+00  1.1595376082401319e-15 0.0000000000000000e+00 0.0000000000000000e+00  0.0000000000000000e+00 0.0000000000000000e+00 0.0000000000000000e+00  0.0000000000000000e+00 -5.7704470220893177e-16 0.0000000000000000e+00  0.0000000000000000e+00 7.4866269675365301e-16 0.0000000000000000e+00  1.1250000003588807e+00 3.0434194974583501e-10 0.0000000000000000e+00  1.5000000000001521e+00 4.9404449174082582e-10 0.0000000000000000e+00  1.1249999996413460e+00 3.0390502076482586e-10 0.0000000000000000e+00  0.0000000000000000e+00 0.0000000000000000e+00 0.0000000000000000e+00  0.0000000000000000e+00 0.0000000000000000e+00 0.0000000000000000e+00  -8.5978958571042189e-16 0.0000000000000000e+00 0.0000000000000000e+00  0.0000000000000000e+00 0.0000000000000000e+00 0.0000000000000000e+00  0.0000000000000000e+00 0.0000000000000000e+00 0.0000000000000000e+00  0.0000000000000000e+00 0.0000000000000000e+00 0.0000000000000000e+00  0.0000000000000000e+00 0.0000000000000000e+00 0.0000000000000000e+00  0.0000000000000000e+00 0.0000000000000000e+00 0.0000000000000000e+00  0.0000000000000000e+00 -3.5723304234787930e-16 0.0000000000000000e+00  0.0000000000000000e+00 0.0000000000000000e+00 0.0000000000000000e+00  0.0000000000000000e+00 0.0000000000000000e+00 0.0000000000000000e+00  0.0000000000000000e+00 0.0000000000000000e+00 0.0000000000000000e+00  0.0000000000000000e+00 3.2883974192636134e-16 0.0000000000000000e+00  0.0000000000000000e+00 -8.9387554311064348e-16 0.0000000000000000e+00  0.0000000000000000e+00 -3.9802236884048449e-16 0.0000000000000000e+00  0.0000000000000000e+00 0.0000000000000000e+00 0.0000000000000000e+00  0.0000000000000000e+00 3.2523988637184007e-16 0.0000000000000000e+00  4.2236090274731096e-16 0.0000000000000000e+00 0.0000000000000000e+00  0.0000000000000000e+00 0.0000000000000000e+00 0.0000000000000000e+00  0.0000000000000000e+00 -5.8029374773937898e-16 0.0000000000000000e+00  0.0000000000000000e+00 0.0000000000000000e+00 0.0000000000000000e+00  1.1250000000000011e+00 0.0000000000000000e+00 0.0000000000000000e+00  1.4999999999999960e+00 0.0000000000000000e+00 0.0000000000000000e+00  1.1250000000000004e+00 -7.7482865358144050e-16 0.0000000000000000e+00  0.0000000000000000e+00 0.0000000000000000e+00 0.0000000000000000e+00  1.0056771960850878e-15 8.7996744950618032e-16 0.0000000000000000e+00  -7.2717416817068203e-16 3.6125327391065232e-16 0.0000000000000000e+00  0.0000000000000000e+00 0.0000000000000000e+00 0.0000000000000000e+00  4.6104694770519004e-16 0.0000000000000000e+00 0.0000000000000000e+00  -1.6433302729899585e-15 -5.6177811860500596e-16 0.0000000000000000e+00  0.0000000000000000e+00 0.0000000000000000e+00 0.0000000000000000e+00  -8.2773904482353496e-16 0.0000000000000000e+00 0.0000000000000000e+00  1.2548611683095168e+00 -3.2685971357476540e-01 0.0000000000000000e+00  1.4202797546299835e+00 4.9572079796016758e-05 0.0000000000000000e+00  1.4473151207233925e+00 5.3875714938248683e-06 0.0000000000000000e+00  1.4599981045196579e+00 7.7324055890144936e-05 0.0000000000000000e+00  1.4889375281082093e+00 1.9686157632986852e-06 0.0000000000000000e+00  1.4928171747586465e+00 9.7957147354511538e-05 0.0000000000000000e+00  1.4998220107684890e+00 4.1605435869634834e-08 0.0000000000000000e+00  1.5000918732864807e+00 -8.3345264090142166e-05 0.0000000000000000e+00  1.4999960166099662e+00 -2.9875352275195637e-07 0.0000000000000000e+00  1.4999140997606057e+00 -1.1702684489302325e-03 0.0000000000000000e+00  1.4999999142679497e+00 -1.7359793845866170e-07 0.0000000000000000e+00  1.4591336503284347e+00 -8.1723630922428750e-03 0.0000000000000000e+00  1.4923530657247983e+00 -4.9507106720380705e-08 0.0000000000000000e+00  1.4889776195578011e+00 -1.1734427279631617e-08 0.0000000000000000e+00  1.4953954493971493e+00 7.5816172834730839e-10 0.0000000000000000e+00  1.4284297338324889e+00 -4.2926169276225051e-01 0.0000000000000000e+00  1.7553418346252980e+00 -2.7566612804317575e-01 0.0000000000000000e+00  1.4163696358125768e+00 5.8967795785582996e-10 0.0000000000000000e+00  9.7468252404202960e-01 3.7002170220995213e-10 0.0000000000000000e+00  1.2752285708568742e+00 5.6410419682377888e-01 0.0000000000000000e+00  1.5559739628726530e+00 -2.9609169295267729e-01 0.0000000000000000e+00  1.0826472250475763e+00 2.9463837325785919e-01 0.0000000000000000e+00  8.2734618673601656e-01 -4.1536348651567473e-01 0.0000000000000000e+00  1.2183973757333280e+00 -2.3617472446740912e-02 0.0000000000000000e+00  1.1314050330342278e+00 -6.1006240232032816e-01 0.0000000000000000e+00  3.4052779793825039e-01 2.2156488860983253e-01 0.0000000000000000e+00  9.3398474653050512e-01 -1.3850799451501157e-08 0.0000000000000000e+00  1.1610548733953703e+00 -5.5644787158742029e-09 0.0000000000000000e+00  1.0771906651326195e+00 -5.6468043338518097e-08 0.0000000000000000e+00  1.1629159279583832e+00 -2.1454749220464250e-03 0.0000000000000000e+00  1.1175883381104708e+00 -1.4129571139777917e-07 0.0000000000000000e+00  1.1346724862465187e+00 -7.9250196459875334e-05 0.0000000000000000e+00  1.0696131958312807e+00 -1.4493002237226210e-07 0.0000000000000000e+00  1.1871709765677636e+00 9.7752458412866418e-05 0.0000000000000000e+00  1.1964831801527929e+00 4.2658978018294173e-06 0.0000000000000000e+00  1.3814888618317895e+00 4.1362576666271519e-05 0.0000000000000000e+00  9.4340109341537115e-01 4.0716678711866685e-05 0.0000000000000000e+00  1.3186291119572919e+00 8.3261062941103808e-07 0.0000000000000000e+00  1.2101792219886358e+00 5.4822261804392070e-10 0.0000000000000000e+00  1.2389894989878163e+00 -2.8911172276642402e-09 0.0000000000000000e+00  1.1419408023785549e+00 -1.1035229925263828e-08 0.0000000000000000e+00  1.0218142184753267e+00 1.1324625581716351e-07 0.0000000000000000e+00  1.1453787197901881e+00 -4.2420482335093983e-08 0.0000000000000000e+00  1.0725889127259283e+00 4.6559077872817189e-05 0.0000000000000000e+00  1.1280885837420009e+00 -1.1204438651778526e-07 0.0000000000000000e+00  1.1638599478598743e+00 -6.5485496064029535e-04 0.0000000000000000e+00  1.1151380938352051e+00 -1.8144564052394315e-07 0.0000000000000000e+00  1.1377611486432664e+00 -4.6592478234706289e-04 0.0000000000000000e+00  1.1237244913028619e+00 -3.5360458282741780e-05 0.0000000000000000e+00  1.1486018353045249e+00 1.6351410068863262e-10 0.0000000000000000e+00  1.3678978572479710e+00 -1.0936847306272821e-01 0.0000000000000000e+00  6.0198199171080891e-01 5.4894220924889481e-01 0.0000000000000000e+00  1.0693518060471805e+00 9.1150679969848754e-06 0.0000000000000000e+00  1.0377234352025839e+00 -1.1484125960119297e-01 0.0000000000000000e+00  1.4973440019081101e+00 -6.1112011451579370e-03 0.0000000000000000e+00  1.3948795592437686e+00 5.6234041126172900e-10 0.0000000000000000e+00  1.4866219058221337e+00 -1.2510006334621018e-09 0.0000000000000000e+00  6.3094583603073828e-01 -1.0446959465718848e-01 0.0000000000000000e+00  1.5428133902379382e+00 3.3022639724382702e-01 0.0000000000000000e+00  3.1529485344880348e-01 -2.9255890591495604e-01 0.0000000000000000e+00  1.2047620778341890e+00 7.8241843434470867e-02 0.0000000000000000e+00  9.3642690535858786e-01 2.5973957148143221e-05 0.0000000000000000e+00  1.4378958031300684e+00 9.6677345470727515e-05 0.0000000000000000e+00  9.1016795473762602e-01 1.2717886188730204e-06 0.0000000000000000e+00  8.4145832021957145e-01 1.5626795982785448e-05 0.0000000000000000e+00  8.2402955358139596e-01 1.9793690987857110e-10 0.0000000000000000e+00  1.1912432834896118e+00 1.0474677434060704e-02 0.0000000000000000e+00  7.6059923133694607e-01 8.1375982377768927e-08 0.0000000000000000e+00  1.7044374127024746e+00 -1.9359141651715289e-01 0.0000000000000000e+00  1.8946913698662893e+00 -1.1332820433140892e-02 0.0000000000000000e+00  1.4927321767214723e+00 2.1579798766047782e-05 0.0000000000000000e+00  9.3778986124033370e-01 -9.9649742055976016e-11 0.0000000000000000e+00  1.0145057706535083e+00 1.3253925150282307e-05 0.0000000000000000e+00  1.1809577120477919e+00 2.5566759051200405e-01 0.0000000000000000e+00  1.0044577043479810e+00 5.5275475637544524e-01 0.0000000000000000e+00  1.1463170197154258e+00 5.4746394082734107e-01 0.0000000000000000e+00  1.7655847094034021e+00 3.6718779945525255e-02 0.0000000000000000e+00  1.0985302940566020e+00 -5.7251218414374483e-01 0.0000000000000000e+00  1.7766452032467046e+00 4.6627270001421900e-01 0.0000000000000000e+00  1.1101272523649000e+00 1.1009041373590568e-01 0.0000000000000000e+00  1.2391975389039616e+00 -4.2160743744328300e-01 0.0000000000000000e+00  1.3646351287338709e+00 2.3104244300511129e-02 0.0000000000000000e+00  7.3381624724937533e-01 1.6868281592700325e-02 0.0000000000000000e+00  7.7348803404949096e-01 1.9706061417390844e-10 0.0000000000000000e+00  1.2967966769059953e+00 4.1845653470969780e-10 0.0000000000000000e+00  1.4790924088860886e+00 5.2972329717028008e-10 0.0000000000000000e+00  1.4062499997441169e+00 4.4207130198349888e-10 0.0000000000000000e+00  5.4983050945776157e-01 1.1454679827340459e-10 0.0000000000000000e+00  5.4983050972867642e-01 1.3521159187421680e-10 0.0000000000000000e+00  0.0000000000000000e+00 0.0000000000000000e+00 0.0000000000000000e+00  1.1566100650469935e+00 -4.9528388201563522e-02 0.0000000000000000e+00  9.3268187763638077e-01 -1.0776835040038363e-01 0.0000000000000000e+00  0.0000000000000000e+00 1.8800025403612258e-15 0.0000000000000000e+00  7.4038567567147506e-01 1.1424631600660545e-01 0.0000000000000000e+00  5.2793194306696289e-01 5.4631368732850849e-02 0.0000000000000000e+00  0.0000000000000000e+00 0.0000000000000000e+00 0.0000000000000000e+00  1.0639882246376628e+00 2.3038847552390762e-01 0.0000000000000000e+00  6.5624999999999967e-01 0.0000000000000000e+00 0.0000000000000000e+00  1.6005229435264006e+00 -4.1479238394901241e-01 0.0000000000000000e+00  1.0904645583981827e+00 -1.0842386456758410e-01 0.0000000000000000e+00  1.1407575266849950e+00 -1.7076672534626444e-01 0.0000000000000000e+00  1.3080039776425756e+00 4.9473673979983485e-01 0.0000000000000000e+00  1.2801121546633016e+00 3.5771276561864518e-01 0.0000000000000000e+00  1.2507200328389900e+00 -5.3226871874298554e-01 0.0000000000000000e+00  1.1057186444186626e+00 -3.9272985309861513e-01 0.0000000000000000e+00  1.3244299633187890e+00 -4.1800919108736356e-01 0.0000000000000000e+00  1.6769647465677269e+00 -4.9625452942615667e-01 0.0000000000000000e+00  1.4143221490988813e+00 -5.7574101633666019e-01 0.0000000000000000e+00  1.3287947176641273e+00 6.2916578016789753e-10 0.0000000000000000e+00  1.4446590342075618e+00 7.1705006890918744e-10 0.0000000000000000e+00  1.4877530020800251e+00 7.6336204828911904e-10 0.0000000000000000e+00  1.0659981413478894e+00 4.2834107839858970e-10 0.0000000000000000e+00  6.7414314272487719e-01 1.5226100086848896e-10 0.0000000000000000e+00  1.3908869454945714e+00 5.1294316250353213e-10 0.0000000000000000e+00  1.3429285860588411e+00 6.6464666503781250e-10 0.0000000000000000e+00  1.3536649510959491e+00 -6.1407021695611179e-02 0.0000000000000000e+00  1.4321117450162022e+00 -3.9313509971256030e-02 0.0000000000000000e+00  1.4360372896431779e+00 -3.0529366807678031e-02 0.0000000000000000e+00  1.4737198898879442e+00 5.2226210873078462e-10 0.0000000000000000e+00  1.2806973291704742e+00 4.0624492637749307e-10 0.0000000000000000e+00  1.4062500002562686e+00 4.4220009629866714e-10 0.0000000000000000e+00  1.4609486760316754e+00 -2.5542189922192852e-09 0.0000000000000000e+00  1.4999715047451287e+00 -4.8529783373466035e-09 0.0000000000000000e+00  1.4051731435044759e+00 -6.6310025711335059e-09 0.0000000000000000e+00  1.3782500699195772e+00 -3.5403137416303360e-09 0.0000000000000000e+00  1.4430694640388695e+00 -1.0273214771725168e-08 0.0000000000000000e+00  1.4160886827438022e+00 -2.1264078896796094e-03 0.0000000000000000e+00  1.4997533624164865e+00 -2.8494715521342334e-03 0.0000000000000000e+00  1.4110190467611758e+00 -1.5926989707068483e-03 0.0000000000000000e+00  1.2401449453333546e+00 -2.4621055689269514e-01 0.0000000000000000e+00  1.2786420200367323e+00 -2.3888437612293117e-01 0.0000000000000000e+00  4.0770027046129381e-01 3.6466163876802177e-01 0.0000000000000000e+00  3.1658415679910917e-01 3.7835369710947708e-01 0.0000000000000000e+00  0.0000000000000000e+00 0.0000000000000000e+00 0.0000000000000000e+00  1.7808850723077474e-01 2.3181055898267952e-01 0.0000000000000000e+00  1.1265013915924948e-01 9.3875753143736904e-02 0.0000000000000000e+00  3.8967102072831849e-16 1.3898296085540497e-15 0.0000000000000000e+00  9.0798902095095346e-01 -5.6485201302848498e-01 0.0000000000000000e+00  1.4259431924777930e+00 5.8430351000333489e-05 0.0000000000000000e+00  1.4990427731907583e+00 5.2256800577474603e-05 0.0000000000000000e+00  1.4983066441686783e+00 6.9192732881635869e-05 0.0000000000000000e+00  1.3923825440951136e+00 3.3657888500583284e-06 0.0000000000000000e+00  1.4741770136491070e+00 6.3347230258355545e-06 0.0000000000000000e+00  1.4961340485848995e+00 3.5526164337813933e-06 0.0000000000000000e+00  1.1140888001706093e+00 1.1501902561766331e-06 0.0000000000000000e+00  1.3413219234176705e+00 7.8962310410568248e-07 0.0000000000000000e+00  6.1779659032347023e-01 1.5833518104057912e-05 0.0000000000000000e+00  6.1782349612201304e-01 1.2034516148059169e-05 0.0000000000000000e+00  0.0000000000000000e+00 -6.3401524905399708e-16 0.0000000000000000e+00  1.3636138986386339e+00 7.5378206202474674e-05 0.0000000000000000e+00  1.3177737603225248e+00 7.0725689087953011e-05 0.0000000000000000e+00  1.4797173844509302e+00 9.7106411973504561e-05 0.0000000000000000e+00  1.0985749008075678e+00 2.9652410688484051e-05 0.0000000000000000e+00  1.3781287643171594e+00 3.7277232715795618e-05 0.0000000000000000e+00  6.5530360881365324e-01 -5.0869300190358779e-06 0.0000000000000000e+00  5.8199191157940144e-01 -5.0292825900928330e-08 0.0000000000000000e+00  5.8199187073681258e-01 4.2113646068874954e-09 0.0000000000000000e+00  0.0000000000000000e+00 0.0000000000000000e+00 0.0000000000000000e+00  1.3757962773355537e+00 1.5584753743104688e-07 0.0000000000000000e+00  1.4964882576118008e+00 6.8418889369331785e-07 0.0000000000000000e+00  1.0697412093268752e+00 -1.2934356797785582e-07 0.0000000000000000e+00  1.3996017316905156e+00 -2.1783108738346953e-07 0.0000000000000000e+00  6.4888551808541173e-01 -6.7369074441694677e-08 0.0000000000000000e+00  6.5525035126781361e-01 -5.7572642690710340e-05 0.0000000000000000e+00  0.0000000000000000e+00 6.5359844319619331e-16 0.0000000000000000e+00  1.4054534917540782e+00 -7.5233803768632302e-05 0.0000000000000000e+00  1.4981743759908805e+00 5.2456805962328188e-05 0.0000000000000000e+00  1.1308399618094873e+00 -1.9163315654000370e-04 0.0000000000000000e+00  1.4090178526915211e+00 -3.4683273658984591e-04 0.0000000000000000e+00  6.6585281249353767e-01 -1.5127378243268524e-04 0.0000000000000000e+00  6.4888562579372699e-01 -5.4162157608994407e-08 0.0000000000000000e+00  0.0000000000000000e+00 -3.9638227110984326e-16 0.0000000000000000e+00  1.4031644488440553e+00 -2.6942858683595503e-07 0.0000000000000000e+00  1.4999411938747673e+00 -2.6032108560285432e-07 0.0000000000000000e+00  1.1216410523362816e+00 -1.5384242992226790e-07 0.0000000000000000e+00  1.4064125898853597e+00 -2.2813016933874647e-07 0.0000000000000000e+00  6.5856961837559391e-01 -3.9005147974437398e-08 0.0000000000000000e+00  1.3930664991879476e+00 2.7989664000526465e-10 0.0000000000000000e+00  1.4994286257221412e+00 2.8250400829207504e-10 0.0000000000000000e+00  6.8374664678260255e-01 -2.2284784615249984e-09 0.0000000000000000e+00  6.8374664412198982e-01 -8.0791572115887456e-10 0.0000000000000000e+00  0.0000000000000000e+00 3.1144176897114129e-16 0.0000000000000000e+00  1.3878966715727254e+00 -2.0563158203586193e-08 0.0000000000000000e+00  1.4999230804263364e+00 -2.5939146958801431e-08 0.0000000000000000e+00  5.2278400208894127e-01 -5.2952755635691872e-09 0.0000000000000000e+00  5.2278399278316068e-01 -2.6336251991436160e-09 0.0000000000000000e+00  0.0000000000000000e+00 0.0000000000000000e+00 0.0000000000000000e+00  1.0547575567536274e+00 -9.4638175904482470e-09 0.0000000000000000e+00  1.3236896162395437e+00 -3.3965886298991749e-08 0.0000000000000000e+00  6.2110991354963763e-01 -2.2579924545992339e-08 0.0000000000000000e+00  6.2110988005733658e-01 -1.3467171294417317e-08 0.0000000000000000e+00  0.0000000000000000e+00 0.0000000000000000e+00 0.0000000000000000e+00  1.0081938986617449e+00 -2.9476876118632060e-08 0.0000000000000000e+00  1.3639553392895702e+00 -6.3008746282763179e-08 0.0000000000000000e+00  1.3943928711264277e+00 -1.2238946041981581e-07 0.0000000000000000e+00  1.4981010497728608e+00 -9.9094961531512426e-08 0.0000000000000000e+00  6.8551448834920881e-01 -1.1244530783675107e-03 0.0000000000000000e+00  6.8431402411849196e-01 -3.1842680270101174e-04 0.0000000000000000e+00  0.0000000000000000e+00 0.0000000000000000e+00 0.0000000000000000e+00  1.4141451485888532e+00 -5.1957803430485909e-03 0.0000000000000000e+00  1.4206138417631209e+00 -1.8367647084186951e-03 0.0000000000000000e+00  6.5070943757362820e-01 -5.5231844210642990e-08 0.0000000000000000e+00  6.5070935679555308e-01 -3.9286488728647866e-08 0.0000000000000000e+00  0.0000000000000000e+00 0.0000000000000000e+00 0.0000000000000000e+00  1.0976429886188821e+00 -9.4025639047188985e-08 0.0000000000000000e+00  1.4044876346323920e+00 -1.8656166901825114e-07 0.0000000000000000e+00  1.4050131869478151e+00 -2.4822618313715456e-07 0.0000000000000000e+00  1.4999986904235540e+00 -2.4520929910235865e-07 0.0000000000000000e+00  6.6338361871730800e-01 -2.9473651010618247e-05 0.0000000000000000e+00  6.6335357192820232e-01 3.3342141868660781e-05 0.0000000000000000e+00  0.0000000000000000e+00 0.0000000000000000e+00 0.0000000000000000e+00  1.1485922829919841e+00 -5.9710557543444153e-04 0.0000000000000000e+00  1.4137375270344854e+00 -5.7145952931434698e-04 0.0000000000000000e+00  1.4092864336713560e+00 -1.0963102986828788e-04 0.0000000000000000e+00  1.5000803666332838e+00 -4.4213539985684590e-04 0.0000000000000000e+00  6.1566336385855358e-01 -5.5635548812671300e-08 0.0000000000000000e+00  6.1566326231546276e-01 -6.2748323999809680e-08 0.0000000000000000e+00  0.0000000000000000e+00 0.0000000000000000e+00 0.0000000000000000e+00  1.0939550464706054e+00 -1.7422137409947239e-07 0.0000000000000000e+00  1.3930569827334718e+00 -2