<?xml version="1.0"?>
<VTKFile type="UnstructuredGrid"  version="0.1"  >
<UnstructuredGrid>
<Piece  NumberOfPoints="525" NumberOfCells="924">
<Points>
<DataArray  type="Float64"  NumberOfComponents="3"  format="ascii">0 0 0  2.2 0 0  2.2 0.41 0  0 0.41 0  0.15 0.2 0  0.25 0.2 0  0.2 0.15 0  0.2 0.25 0  0.104762 0 0  0.209524 0 0  0.314286 0 0  0.419048 0 0  0.52381 0 0  0.628571 0 0  0.733333 0 0  0.838095 0 0  0.9428569999999999 0 0  1.04762 0 0  1.15238 0 0  1.25714 0 0  1.3619 0 0  1.46667 0 0  1.57143 0 0  1.67619 0 0  1.78095 0 0  1.88571 0 0  1.99048 0 0  2.09524 0 0  2.2 0.1025 0  2.2 0.205 0  2.2 0.3075 0  2.1 0.41 0  2 0.41 0  1.9 0.41 0  1.8 0.41 0  1.7 0.41 0  1.6 0.41 0  1.5 0.41 0  1.4 0.41 0  1.3 0.41 0  1.2 0.41 0  1.1 0.41 0  1 0.41 0  0.9 0.41 0  0.8 0.41 0  0.7 0.41 0  0.6 0.41 0  0.5 0.41 0  0.4 0.41 0  0.3 0.41 0  0.2 0.41 0  0.1 0.41 0  0 0.3075 0  0 0.205 0  0 0.1025 0  0.1566987973585577 0.2250001169958213 0  0.1749998830041787 0.2433012026414423 0  0.2250001169958213 0.2433012026414423 0  0.2433012026414423 0.2250001169958213 0  0.2433012026414423 0.1749998830041787 0  0.2250001169958213 0.1566987973585577 0  0.1749998830041787 0.1566987973585577 0  0.1566987973585577 0.1749998830041787 0  0.352033 0.262216 0  1.04579 0.252253 0  1.24065 0.243419 0  0.985775 0.171509 0  1.30324 0.187395 0  0.890988 0.190768 0  1.39085 0.202767 0  0.801464 0.204685 0  1.49904 0.204666 0  0.704267 0.202289 0  1.60238 0.204951 0  0.487789 0.19191 0  1.72935 0.219637 0  1.83335 0.187427 0  2.03359 0.193642 0  0.314663 0.307348 0  0.249039 0.333583 0  2.12147 0.253405 0  2.06373 0.0836837 0  0.0734726 0.267055 0  0.143989 0.0677174 0  0.0613613 0.33781 0  0.299628 0.236829 0  0.527114 0.295386 0  0.262384 0.26549 0  0.275777 0.18341 0  1.74578 0.330928 0  1.84001 0.302448 0  1.64998 0.313838 0  0.648421 0.302367 0  1.54544 0.308508 0  0.755686 0.306156 0  1.42668 0.314809 0  0.870524 0.298596 0  1.22553 0.112785 0  1.05603 0.147372 0  0.969346 0.329867 0  1.32527 0.276284 0  2.02914 0.29511 0  1.88168 0.119486 0  1.79545 0.104842 0  1.35688 0.0892539 0  1.69041 0.105324 0  0.914199 0.09555660000000001 0  1.58234 0.102923 0  0.61843 0.10815 0  1.47999 0.101161 0  0.725217 0.104273 0  0.821727 0.102306 0  1.96725 0.105778 0  0.418624 0.241547 0  0.135226 0.239087 0  1.14921 0.314841 0  0.404508 0.333259 0  0.590155 0.206269 0  2.12554 0.150731 0  1.93166 0.22436 0  0.104689 0.190046 0  0.267856 0.07447529999999999 0  0.269368 0.221581 0  0.434446 0.114927 0  1.0089 0.07933809999999999 0  0.953023 0.246698 0  1.25853 0.33355 0  1.05268 0.340828 0  2.1369 0.067383 0  0.522398 0.112537 0  1.3421 0.348929 0  0.215186 0.289473 0  0.203197 0.335348 0  1.13984 0.190728 0  1.93813 0.330504 0  1.10505 0.0883705 0  0.341988 0.0824728 0  0.253113 0.138035 0  0.291932 0.131907 0  0.203713 0.102439 0  0.150375 0.134668 0  0.151494 0.309119 0  0.354384 0.17896 0  0.06853670000000001 0.100776 0  0.424128 0.180088 0  0.474925 0.0568661 0  2.10843 0.347669 0  2.160735 0.2804525 0  2.160735 0.2292025 0  2.2 0.25625 0  2.079485 0.04184185 0  2.027105 0.04184185 0  2.04286 0 0  0.1767565 0.0338587 0  0.1243755 0.0338587 0  0.157143 0 0  0.08068065000000001 0.373905 0  0.03068065 0.373905 0  0.05 0.41 0  0.03068065 0.322655 0  0 0.35875 0  0.281851 0.3204655 0  0.2745195 0.3717915 0  0.3073315 0.358674 0  0.06741695 0.3024325 0  0.0367363 0.2872775 0  0.3071455 0.2720885 0  0.3258305 0.2495225 0  0.333348 0.284782 0  0.2557115 0.2995365 0  0.2885235 0.286419 0  2.075305 0.2742575 0  2.031365 0.244376 0  2.07753 0.2235235 0  2.01549 0.09473085000000001 0  1.978865 0.052889 0  2.00042 0.14971 0  2.04866 0.13866285 0  0.472869 0.2684665 0  0.4532065 0.2167285 0  0.5074514999999999 0.243648 0  2.16277 0.1778655 0  2.16277 0.1266155 0  2.2 0.15375 0  1.90667 0.171923 0  1.882505 0.2058935 0  1.857515 0.1534565 0  1.885835 0.263404 0  1.83668 0.2449375 0  0.6042925 0.1572095 0  0.647211 0.204279 0  0.6613485 0.1552195 0  0.3595855 0.3203035 0  0.3782705 0.2977375 0  0.155113 0.241194 0  0.1459625 0.2320435 0  0.1646446609406726 0.2353553390593274 0  0.259539 0.179205 0  0.2628885 0.191705 0  0.2482962819455563 0.1870590127797247 0  0.281006 0.2511595 0  1.0209025 0.1594405 0  1.05091 0.1998125 0  1.0157825 0.211881 0  1.264385 0.15009 0  1.23309 0.178102 0  1.271945 0.215407 0  1.291205 0.10101945 0  1.33006 0.13832445 0  0.928528 0.0477783 0  0.876147 0.0477783 0  0.890476 0 0  0.9025935 0.1431623 0  0.9499869999999999 0.1335328 0  0.9383815 0.1811385 0  0.867963 0.0989313 0  0.8563575 0.146537 0  0.8299110000000001 0.051153 0  1.411775 0.04462695 0  1.35939 0.04462695 0  1.414285 0 0  1.373865 0.14601045 0  1.347045 0.195081 0  1.418435 0.09520745 0  1.43542 0.151964 0  1.47333 0.0505805 0  0.7775300000000001 0.051153 0  0.785714 0 0  0.8115954999999999 0.1534955 0  0.8462259999999999 0.1977265 0  0.7734719999999999 0.1032895 0  0.7633405 0.154479 0  0.729275 0.0521365 0  1.52571 0.0505805 0  1.51905 0 0  1.489515 0.1529135 0  1.444945 0.2037165 0  1.531165 0.102042 0  1.54069 0.1537945 0  1.576885 0.0514615 0  1.9804 0.259735 0  1.982625 0.209001 0  1.820005 0.356224 0  1.870005 0.356224 0  1.85 0.41 0  1.78468 0.2610425 0  1.78135 0.203532 0  1.72289 0.370464 0  1.77289 0.370464 0  1.75 0.41 0  1.792895 0.316688 0  1.737565 0.2752825 0  1.62499 0.361919 0  1.67499 0.361919 0  1.65 0.41 0  1.69788 0.322383 0  1.689665 0.2667375 0  1.62618 0.2593945 0  1.665865 0.212294 0  0.6242105 0.3561835 0  0.6742105 0.3561835 0  0.6499999999999999 0.41 0  0.6192880000000001 0.254318 0  0.6763440000000001 0.252328 0  1.52272 0.359254 0  1.57272 0.359254 0  1.55 0.41 0  1.59771 0.311173 0  1.57391 0.2567295 0  1.52224 0.256587 0  1.55071 0.2048085 0  0.727843 0.358078 0  0.7778430000000001 0.358078 0  0.75 0.41 0  0.7020535 0.3042615 0  0.7299765 0.2542225 0  0.778575 0.2554205 0  0.7528655 0.203487 0  1.41334 0.3624045 0  1.46334 0.3624045 0  1.45 0.41 0  1.48606 0.3116585 0  1.46286 0.2597375 0  1.408765 0.258788 0  0.8352619999999999 0.354298 0  0.885262 0.354298 0  0.8500000000000001 0.41 0  0.813105 0.302376 0  0.8359939999999999 0.2516405 0  0.880756 0.244682 0  0.9346730000000001 0.3699335 0  0.984673 0.3699335 0  0.95 0.41 0  0.9199349999999999 0.3142315 0  0.676894 0.0521365 0  0.680952 0 0  0.714742 0.153281 0  0.6718235 0.1062115 0  0.6235005 0.054075 0  1.629265 0.0514615 0  1.62381 0 0  1.59236 0.153937 0  1.636375 0.1041235 0  1.646395 0.1551375 0  1.6833 0.052662 0  1.73568 0.052662 0  1.72857 0 0  1.70988 0.1624805 0  1.74293 0.105083 0  1.7624 0.1622395 0  1.7882 0.052421 0  1.84058 0.052421 0  1.83333 0 0  1.8144 0.1461345 0  1.838565 0.112164 0  1.883695 0.059743 0  1.124605 0.3624205 0  1.174605 0.3624205 0  1.15 0.41 0  1.314255 0.2318395 0  1.28296 0.2598515 0  1.35806 0.2395255 0  1.375975 0.2955465 0  1.92648 0.052889 0  1.938095 0 0  1.924465 0.112632 0  1.949455 0.165069 0  0.352254 0.3716295 0  0.402254 0.3716295 0  0.35 0.41 0  0.513557 0.352693 0  0.563557 0.352693 0  0.55 0.41 0  0.5877675 0.2988765 0  0.5586344999999999 0.2508275 0  0.538972 0.1990895 0  0.452254 0.3716295 0  0.45 0.41 0  0.465811 0.3143225 0  0.411566 0.287403 0  0.3853285 0.2518815 0  0.1199575 0.2145665 0  0.0890808 0.2285505 0  0.1043493 0.253071 0  0.2245195 0.3717915 0  0.25 0.41 0  0.291071 0.03723765 0  0.23869 0.03723765 0  0.261905 0 0  0.265876 0.2435355 0  0.2563345 0.2232905 0  0.2528425 0.245245 0  0.284498 0.229205 0  1.032465 0.11335505 0  0.9973375 0.12542355 0  0.9615494999999999 0.08744735000000001 0  0.9220055 0.218733 0  0.9693989999999999 0.2091035 0  0.9611845 0.2882825 0  0.9117735 0.272647 0  1.229265 0.371775 0  1.279265 0.371775 0  1.25 0.41 0  1.02634 0.375414 0  1.07634 0.375414 0  1.05 0.41 0  1.011013 0.3353475 0  2.11607 0.0336915 0  2.16845 0.0336915 0  2.14762 0 0  2.16845 0.0849415 0  2.2 0.05125 0  2.100315 0.07553335 0  0.5562765000000001 0.159403 0  0.570414 0.1103435 0  0.5050935 0.1522235 0  1.32105 0.3794645 0  1.37105 0.3794645 0  1.35 0.41 0  1.333685 0.3126065 0  1.38439 0.331869 0  0.9994065 0.2494755 0  1.007568 0.29106 0  1.300315 0.3412395 0  1.2919 0.304917 0  2.13122 0.109057 0  2.094635 0.11720735 0  0.2725725 0.2024955 0  0.259684 0.2107905 0  0.2482962819455563 0.2129409872202754 0  0.2877025 0.2101195 0  2.123505 0.202068 0  2.079565 0.1721865 0  1.02826 0.03966905 0  0.9758784999999999 0.03966905 0  0.9952384999999999 0 0  1.049235 0.2965405 0  1.100945 0.3278345 0  1.0975 0.283547 0  0.5711200000000001 0.054075 0  0.5761905 0 0  0.523104 0.0562685 0  1.24959 0.2884845 0  1.20387 0.3241955 0  1.19493 0.27913 0  0.238785 0.2774815 0  0.2321125 0.311528 0  0.226118 0.3344655 0  0.2015985 0.3726739999999999 0  1.144525 0.2527845 0  1.190245 0.2170735 0  1.092815 0.2214905 0  0.2091915 0.3124105 0  0.220093 0.266387 0  0.243692 0.2543955 0  0.2353553390593274 0.2353553390593274 0  0.478422 0.113732 0  0.4611175 0.1534185 0  1.919065 0.370252 0  1.969065 0.370252 0  1.95 0.41 0  1.983635 0.312807 0  2.01457 0.352555 0  1.88907 0.316476 0  1.934895 0.277432 0  1.182685 0.1517565 0  1.097935 0.16905 0  1.128715 0.04418525 0  1.076335 0.04418525 0  1.1 0 0  1.056975 0.08385429999999999 0  1.08054 0.11787125 0  1.122445 0.13954925 0  1.16529 0.10057775 0  0.304922 0.07847404999999999 0  0.328137 0.0412364 0  0.380518 0.0412364 0  0.366667 0 0  0.388217 0.09869990000000001 0  0.426747 0.0574635 0  0.31696 0.1071899 0  0.279894 0.10319115 0  0.2725225 0.134971 0  0.2604845 0.10625515 0  0.228413 0.120237 0  0.2143565 0.129569 0  0.2390565 0.147367 0  1.30701 0.04462695 0  1.30952 0 0  1.241335 0.0563925 0  0.2357845 0.08845715 0  1.188955 0.0563925 0  1.20476 0 0  0.2066185 0.0512195 0  0.173851 0.08507819999999999 0  0.0367363 0.2360275 0  0 0.25625 0  0.264445 0.1607225 0  0.248207 0.1565175 0  0.2353553390593274 0.1646446609406726 0  0.2838545 0.1576585 0  0.130694 0.182523 0  0.1273445 0.195023 0  0.1517037180544437 0.1870590127797247 0  0.127532 0.162357 0  0.153537 0.154834 0  0.0523445 0.197523 0  0
[...]
<PointData  Vectors="u"> 
<DataArray  type="Float64"  Name="u"  NumberOfComponents="3" format="ascii">-7.5012496567507476e-16 -4.0811751175048581e-15 0.0000000000000000e+00  0.0000000000000000e+00 0.0000000000000000e+00 0.0000000000000000e+00  0.0000000000000000e+00 0.0000000000000000e+00 0.0000000000000000e+00  0.0000000000000000e+00 0.0000000000000000e+00 0.0000000000000000e+00  0.0000000000000000e+00 0.0000000000000000e+00 0.0000000000000000e+00  0.0000000000000000e+00 0.0000000000000000e+00 0.0000000000000000e+00  0.0000000000000000e+00 0.0000000000000000e+00 0.0000000000000000e+00  0.0000000000000000e+00 0.0000000000000000e+00 0.0000000000000000e+00  0.0000000000000000e+00 5.2217424815535831e-16 0.0000000000000000e+00  0.0000000000000000e+00 -2.6536540474765725e-15 0.0000000000000000e+00  0.0000000000000000e+00 -4.1948546302286481e-16 0.0000000000000000e+00  0.0000000000000000e+00 -1.9159858555229700e-15 0.0000000000000000e+00  0.0000000000000000e+00 0.0000000000000000e+00 0.0000000000000000e+00  0.0000000000000000e+00 -8.2629328534128466e-16 0.0000000000000000e+00  0.0000000000000000e+00 1.2128402571308454e-15 0.0000000000000000e+00  0.0000000000000000e+00 -3.3446051087664912e-16 0.0000000000000000e+00  0.0000000000000000e+00 0.0000000000000000e+00 0.0000000000000000e+00  0.0000000000000000e+00 0.0000000000000000e+00 0.0000000000000000e+00  0.0000000000000000e+00 7.9961211672251625e-16 0.0000000000000000e+00  0.0000000000000000e+00 0.0000000000000000e+00 0.0000000000000000e+00  0.0000000000000000e+00 0.0000000000000000e+00 0.0000000000000000e+00  3.5678613283433491e-16 4.9672804389069970e-16 0.0000000000000000e+00  0.0000000000000000e+00 0.0000000000000000e+00 0.0000000000000000e+00  3.0147358382611649e-16 0.0000000000000000e+00 0.0000000000000000e+00  -5.1932495012538680e-16 0.0000000000000000e+00 0.0000000000000000e+00  0.0000000000000000e+00 7.5487507360428078e-16 0.0000000000000000e+00  0.0000000000000000e+00 0.0000000000000000e+00 0.0000000000000000e+00  0.0000000000000000e+00 0.0000000000000000e+00 0.0000000000000000e+00  1.1250000003580340e+00 3.0478263405395814e-10 0.0000000000000000e+00  1.5000000000001688e+00 4.9482378519251343e-10 0.0000000000000000e+00  1.1249999996421962e+00 3.0434342194563901e-10 0.0000000000000000e+00  0.0000000000000000e+00 0.0000000000000000e+00 0.0000000000000000e+00  0.0000000000000000e+00 0.0000000000000000e+00 0.0000000000000000e+00  0.0000000000000000e+00 3.7539012670077174e-16 0.0000000000000000e+00  0.0000000000000000e+00 0.0000000000000000e+00 0.0000000000000000e+00  0.0000000000000000e+00 0.0000000000000000e+00 0.0000000000000000e+00  0.0000000000000000e+00 0.0000000000000000e+00 0.0000000000000000e+00  0.0000000000000000e+00 0.0000000000000000e+00 0.0000000000000000e+00  0.0000000000000000e+00 0.0000000000000000e+00 0.0000000000000000e+00  0.0000000000000000e+00 0.0000000000000000e+00 0.0000000000000000e+00  0.0000000000000000e+00 4.0162889015193657e-16 0.0000000000000000e+00  0.0000000000000000e+00 0.0000000000000000e+00 0.0000000000000000e+00  0.0000000000000000e+00 -6.7586436389331079e-16 0.0000000000000000e+00  0.0000000000000000e+00 -4.2273856280895255e-16 0.0000000000000000e+00  0.0000000000000000e+00 -4.4642327243880389e-16 0.0000000000000000e+00  0.0000000000000000e+00 3.8538127408266667e-16 0.0000000000000000e+00  0.0000000000000000e+00 0.0000000000000000e+00 0.0000000000000000e+00  0.0000000000000000e+00 0.0000000000000000e+00 0.0000000000000000e+00  0.0000000000000000e+00 0.0000000000000000e+00 0.0000000000000000e+00  0.0000000000000000e+00 0.0000000000000000e+00 0.0000000000000000e+00  0.0000000000000000e+00 -5.0154195958587426e-16 0.0000000000000000e+00  0.0000000000000000e+00 0.0000000000000000e+00 0.0000000000000000e+00  1.1250000000000004e+00 0.0000000000000000e+00 0.0000000000000000e+00  1.5000000000000016e+00 0.0000000000000000e+00 0.0000000000000000e+00  1.1250000000000020e+00 0.0000000000000000e+00 0.0000000000000000e+00  0.0000000000000000e+00 0.0000000000000000e+00 0.0000000000000000e+00  1.2658105725456950e-15 3.1645255526262346e-16 0.0000000000000000e+00  0.0000000000000000e+00 0.0000000000000000e+00 0.0000000000000000e+00  0.0000000000000000e+00 0.0000000000000000e+00 0.0000000000000000e+00  4.1914633064400799e-16 0.0000000000000000e+00 0.0000000000000000e+00  0.0000000000000000e+00 0.0000000000000000e+00 0.0000000000000000e+00  0.0000000000000000e+00 0.0000000000000000e+00 0.0000000000000000e+00  5.2102848085517076e-16 0.0000000000000000e+00 0.0000000000000000e+00  1.2548592609274229e+00 -3.2699351342858318e-01 0.0000000000000000e+00  1.4202797735027046e+00 4.9577574257335887e-05 0.0000000000000000e+00  1.4473151272620401e+00 5.3719828156434380e-06 0.0000000000000000e+00  1.4599981077041078e+00 7.7416748613205448e-05 0.0000000000000000e+00  1.4889375264527647e+00 1.9586350297678520e-06 0.0000000000000000e+00  1.4928172313359254e+00 9.8512072429275259e-05 0.0000000000000000e+00  1.4998220106962219e+00 3.7539955514024187e-08 0.0000000000000000e+00  1.5000918924625797e+00 -8.1575959562393062e-05 0.0000000000000000e+00  1.4999960166078232e+00 -2.9965576600696205e-07 0.0000000000000000e+00  1.4999141126572724e+00 -1.1656931320140930e-03 0.0000000000000000e+00  1.4999999142681406e+00 -1.7366564534221020e-07 0.0000000000000000e+00  1.4591202182909153e+00 -8.1675995204536084e-03 0.0000000000000000e+00  1.4923530657109991e+00 -4.9439122224146037e-08 0.0000000000000000e+00  1.4889776195649558e+00 -1.1694693443652478e-08 0.0000000000000000e+00  1.4953954493974686e+00 7.6282288469290856e-10 0.0000000000000000e+00  1.4285529700855899e+00 -4.2933770788786607e-01 0.0000000000000000e+00  1.7554978540717068e+00 -2.7563733775696836e-01 0.0000000000000000e+00  1.4163696358126785e+00 5.9087481999204088e-10 0.0000000000000000e+00  9.7468252404257039e-01 3.7108783900477077e-10 0.0000000000000000e+00  1.2752735568034668e+00 5.6415167081197393e-01 0.0000000000000000e+00  1.5557580655264660e+00 -2.9604972523597295e-01 0.0000000000000000e+00  1.0826434984015565e+00 2.9463462961617659e-01 0.0000000000000000e+00  8.2733599341090014e-01 -4.1555240855963022e-01 0.0000000000000000e+00  1.2183867207320331e+00 -2.3619594025853671e-02 0.0000000000000000e+00  1.1315415759873111e+00 -6.1013349856071430e-01 0.0000000000000000e+00  3.4037819997951191e-01 2.2129609335319375e-01 0.0000000000000000e+00  9.3398474646669727e-01 -1.3823764669501096e-08 0.0000000000000000e+00  1.1610548733685857e+00 -5.5420804466670570e-09 0.0000000000000000e+00  1.0771906650253693e+00 -5.6438782059132379e-08 0.0000000000000000e+00  1.1629107071054168e+00 -2.1421003602815208e-03 0.0000000000000000e+00  1.1175883381056466e+00 -1.4146096909088083e-07 0.0000000000000000e+00  1.1346707708958643e+00 -7.7726067804160216e-05 0.0000000000000000e+00  1.0696131969513982e+00 -1.4610977030586165e-07 0.0000000000000000e+00  1.1871706706555236e+00 9.8188810826870099e-05 0.0000000000000000e+00  1.1964831659030732e+00 4.2541658030815960e-06 0.0000000000000000e+00  1.3814888384844635e+00 4.1359332927213780e-05 0.0000000000000000e+00  9.4340109981113141e-01 4.0758845997477420e-05 0.0000000000000000e+00  1.3186291163126125e+00 8.2640635321463911e-07 0.0000000000000000e+00  1.2101792219868881e+00 5.5118758742130585e-10 0.0000000000000000e+00  1.2389894990039614e+00 -2.8734303494844735e-09 0.0000000000000000e+00  1.1419408024203579e+00 -1.1005032206996570e-08 0.0000000000000000e+00  1.0218142152167913e+00 1.1072140967454212e-07 0.0000000000000000e+00  1.1453787198796748e+00 -4.2377445589821290e-08 0.0000000000000000e+00  1.0725890197157146e+00 4.6725689422226526e-05 0.0000000000000000e+00  1.1280885838208927e+00 -1.1209958439778302e-07 0.0000000000000000e+00  1.1638673128349561e+00 -6.4865854259354798e-04 0.0000000000000000e+00  1.1151380934597095e+00 -1.8203375960248022e-07 0.0000000000000000e+00  1.1377636641926714e+00 -4.6373461214623533e-04 0.0000000000000000e+00  1.1237251829846100e+00 -3.4647429160174360e-05 0.0000000000000000e+00  1.1486018353098639e+00 1.6940720100035767e-10 0.0000000000000000e+00  1.3678626793815043e+00 -1.0942037807520544e-01 0.0000000000000000e+00  6.0223489896459237e-01 5.4924358473736834e-01 0.0000000000000000e+00  1.0693518334897443e+00 9.1015029410236089e-06 0.0000000000000000e+00  1.0377496020186108e+00 -1.1487614021633194e-01 0.0000000000000000e+00  1.4973416059993079e+00 -6.1025471443229033e-03 0.0000000000000000e+00  1.3948795592436405e+00 5.6343527075629123e-10 0.0000000000000000e+00  1.4866219058195584e+00 -1.2350592776847061e-09 0.0000000000000000e+00  6.3102303905280954e-01 -1.0419757875843647e-01 0.0000000000000000e+00  1.5427398247324779e+00 3.3010739797186772e-01 0.0000000000000000e+00  3.1529604816546725e-01 -2.9267943365890553e-01 0.0000000000000000e+00  1.2047752999740275e+00 7.8260163618463108e-02 0.0000000000000000e+00  9.3642687014004944e-01 2.5983532327333277e-05 0.0000000000000000e+00  1.4378957786788835e+00 9.6860227379043414e-05 0.0000000000000000e+00  9.1016796498279418e-01 1.2665795900997844e-06 0.0000000000000000e+00  8.4145836106889238e-01 1.5622415883198915e-05 0.0000000000000000e+00  8.2402955358086405e-01 1.9821562495285974e-10 0.0000000000000000e+00  1.1912570770300508e+00 1.0488024921610647e-02 0.0000000000000000e+00  7.6059923464389001e-01 7.9800827062725578e-08 0.0000000000000000e+00  1.7047271161454156e+00 -1.9351495672259289e-01 0.0000000000000000e+00  1.8948047481836159e+00 -1.1279658387710133e-02 0.0000000000000000e+00  1.4927321715080029e+00 2.1555259452888471e-05 0.0000000000000000e+00  9.3778986123263464e-01 -9.4351966546192787e-11 0.0000000000000000e+00  1.0145057350237456e+00 1.3241537967511432e-05 0.0000000000000000e+00  1.1809866972296417e+00 2.5565095133585802e-01 0.0000000000000000e+00  1.0042381669302856e+00 5.5247654325014628e-01 0.0000000000000000e+00  1.1461796419220067e+00 5.4726025501452280e-01 0.0000000000000000e+00  1.7653468345228918e+00 3.6609221649135631e-02 0.0000000000000000e+00  1.0984679449484784e+00 -5.7243225723221591e-01 0.0000000000000000e+00  1.7767442610498769e+00 4.6635001266367737e-01 0.0000000000000000e+00  1.1100157259040757e+00 1.0999724648408048e-01 0.0000000000000000e+00  1.2391422630417448e+00 -4.2146522459226582e-01 0.0000000000000000e+00  1.3645969178175084e+00 2.3092611944527146e-02 0.0000000000000000e+00  7.3384324262756084e-01 1.6877420203354015e-02 0.0000000000000000e+00  7.7348803404977018e-01 1.9738015156006604e-10 0.0000000000000000e+00  1.2967966769064885e+00 4.1910848066401005e-10 0.0000000000000000e+00  1.4790924088862705e+00 5.3060642901618086e-10 0.0000000000000000e+00  1.4062499997446283e+00 4.4275196316524424e-10 0.0000000000000000e+00  5.4983050945770284e-01 1.1476886527937001e-10 0.0000000000000000e+00  5.4983050972947245e-01 1.3571553738760091e-10 0.0000000000000000e+00  0.0000000000000000e+00 -1.6898904308059481e-15 0.0000000000000000e+00  1.1564550198441108e+00 -4.9539015418211665e-02 0.0000000000000000e+00  9.3254629194004457e-01 -1.0774659995425141e-01 0.0000000000000000e+00  0.0000000000000000e+00 0.0000000000000000e+00 0.0000000000000000e+00  7.4037790803644732e-01 1.1424583470038774e-01 0.0000000000000000e+00  5.2792881419201609e-01 5.4627741756575400e-02 0.0000000000000000e+00  0.0000000000000000e+00 1.6887970646961894e-15 0.0000000000000000e+00  1.0639867996050361e+00 2.3037896897379029e-01 0.0000000000000000e+00  6.5624999999999978e-01 0.0000000000000000e+00 0.0000000000000000e+00  1.6006899603015441e+00 -4.1481207598553177e-01 0.0000000000000000e+00  1.0905490554160076e+00 -1.0842008645452141e-01 0.0000000000000000e+00  1.1408570587640297e+00 -1.7077992940672579e-01 0.0000000000000000e+00  1.3080149280160858e+00 4.9474515557912757e-01 0.0000000000000000e+00  1.2801164391533717e+00 3.5770783654137966e-01 0.0000000000000000e+00  1.2508049443421791e+00 -5.3240509429456184e-01 0.0000000000000000e+00  1.1057110867179338e+00 -3.9290212203574354e-01 0.0000000000000000e+00  1.3244955207508224e+00 -4.1812906545995360e-01 0.0000000000000000e+00  1.6771863113219763e+00 -4.9625312602033489e-01 0.0000000000000000e+00  1.4144760782134425e+00 -5.7582590169460535e-01 0.0000000000000000e+00  1.3287947176636796e+00 6.3109698520223815e-10 0.0000000000000000e+00  1.4446590342065468e+00 7.2146760943970486e-10 0.0000000000000000e+00  1.4877530020798899e+00 7.6585219096018384e-10 0.0000000000000000e+00  1.0659981413501445e+00 4.3099344636443915e-10 0.0000000000000000e+00  6.7414314272787879e-01 1.5382047839716405e-10 0.0000000000000000e+00  1.3908869454969892e+00 5.1901075892086930e-10 0.0000000000000000e+00  1.3429285860598719e+00 6.6754701623932808e-10 0.0000000000000000e+00  1.3536491264995056e+00 -6.1424629194704129e-02 0.0000000000000000e+00  1.4320829551913683e+00 -3.9329300361737984e-02 0.0000000000000000e+00  1.4360229538958897e+00 -3.0531606235344882e-02 0.0000000000000000e+00  1.4737198898877819e+00 5.2312401816882827e-10 0.0000000000000000e+00  1.2806973291699766e+00 4.0687328272747224e-10 0.0000000000000000e+00  1.4062500002557974e+00 4.4288094670909690e-10 0.0000000000000000e+00  1.4609486760375863e+00 -2.5343625079737464e-09 0.0000000000000000e+00  1.4999715047449254e+00 -4.8263531469876644e-09 0.0000000000000000e+00  1.4051731435196739e+00 -6.6021153770987741e-09 0.0000000000000000e+00  1.3782500699073639e+00 -3.5188774779977015e-09 0.0000000000000000e+00  1.4430694640238557e+00 -1.0236874528641500e-08 0.0000000000000000e+00  1.4160925573022878e+00 -2.1173614661029131e-03 0.0000000000000000e+00  1.4997528286092554e+00 -2.8425990225040671e-03 0.0000000000000000e+00  1.4110219871562713e+00 -1.5866937189101882e-03 0.0000000000000000e+00  1.2402092065713524e+00 -2.4627382576977760e-01 0.0000000000000000e+00  1.2786705035128887e+00 -2.3896240366856511e-01 0.0000000000000000e+00  4.0795587147327994e-01 3.6491206512540453e-01 0.0000000000000000e+00  3.1679246488304308e-01 3.7863524782917318e-01 0.0000000000000000e+00  0.0000000000000000e+00 3.4549011517025694e-16 0.0000000000000000e+00  1.7798644933901275e-01 2.3161170269068632e-01 0.0000000000000000e+00  1.1259266158056136e-01 9.3711351103013624e-02 0.0000000000000000e+00  0.0000000000000000e+00 -6.4597718989012628e-16 0.0000000000000000e+00  9.0805170591383766e-01 -5.6498364019129244e-01 0.0000000000000000e+00  1.4259431798260223e+00 5.8459264162718762e-05 0.0000000000000000e+00  1.4990427715594392e+00 5.2260586777750999e-05 0.0000000000000000e+00  1.4983066468163446e+00 6.9236210118525808e-05 0.0000000000000000e+00  1.3923825370229894e+00 3.3537488270402620e-06 0.0000000000000000e+00  1.4741770086328061e+00 6.3177082146716590e-06 0.0000000000000000e+00  1.4961340499433762e+00 3.5394208675985109e-06 0.0000000000000000e+00  1.1140887926628809e+00 1.1442186263552484e-06 0.0000000000000000e+00  1.3413219194718080e+00 7.8348197990649969e-07 0.0000000000000000e+00  6.1779660693288574e-01 1.5867566030258962e-05 0.0000000000000000e+00  6.1782363577143817e-01 1.2120602567384719e-05 0.0000000000000000e+00  0.0000000000000000e+00 0.0000000000000000e+00 0.0000000000000000e+00  1.3636140402968664e+00 7.5746914466172372e-05 0.0000000000000000e+00  1.3177737993399821e+00 7.0874277437641938e-05 0.0000000000000000e+00  1.4797174150402579e+00 9.7360283034319319e-05 0.0000000000000000e+00  1.0985752132085256e+00 3.0015530635294968e-05 0.0000000000000000e+00  1.3781290905542394e+00 3.8013515562244653e-05 0.0000000000000000e+00  6.5530400096188912e-01 -4.8954189061453605e-06 0.0000000000000000e+00  5.8199191074356449e-01 -5.0665256089201595e-08 0.0000000000000000e+00  5.8199186873830522e-01 3.4898207087351564e-09 0.0000000000000000e+00  7.4875339154989166e-16 0.0000000000000000e+00 0.0000000000000000e+00  1.3757962752806925e+00 1.5179218768483980e-07 0.0000000000000000e+00  1.4964882570510827e+00 6.7761587960762838e-07 0.0000000000000000e+00  1.0697412080319273e+00 -1.3066026019542754e-07 0.0000000000000000e+00  1.3996017309442368e+00 -2.1979739984625300e-07 0.0000000000000000e+00  6.4888551786584903e-01 -6.7553851086850973e-08 0.0000000000000000e+00  6.5525126392653699e-01 -5.7199548847449442e-05 0.0000000000000000e+00  0.0000000000000000e+00 0.0000000000000000e+00 0.0000000000000000e+00  1.4054540800944726e+00 -7.3879283426334826e-05 0.0000000000000000e+00  1.4981744427524146e+00 5.3488330960639116e-05 0.0000000000000000e+00  1.1308413416435183e+00 -1.9034690119352704e-04 0.0000000000000000e+00  1.4090189331562926e+00 -3.4449882823622043e-04 0.0000000000000000e+00  6.6585461181072281e-01 -1.5060381815836072e-04 0.0000000000000000e+00  6.4888562581571108e-01 -5.4228589139653227e-08 0.0000000000000000e+00  0.0000000000000000e+00 4.9605260641956503e-16 0.0000000000000000e+00  1.4031644485948007e+00 -2.7031763715572940e-07 0.0000000000000000e+00  1.4999411938552811e+00 -2.6236217313775124e-07 0.0000000000000000e+00  1.1216410522907900e+00 -1.5407345921351467e-07 0.0000000000000000e+00  1.4064125898464970e+00 -2.2847852540409506e-07 0.0000000000000000e+00  6.5856961847511442e-01 -3.9017233694646244e-08 0.0000000000000000e+00  1.3930664991846693e+00 2.8773313170332725e-10 0.0000000000000000e+00  1.4994286257218956e+00 2.9156413683984545e-10 0.0000000000000000e+00  6.8374664675581354e-01 -2.2196817283562378e-09 0.0000000000000000e+00  6.8374664410689956e-01 -8.0229147074691355e-10 0.0000000000000000e+00  0.0000000000000000e+00 0.0000000000000000e+00 0.0000000000000000e+00  1.3878966715403338e+00 -2.0515200682945440e-08 0.0000000000000000e+00  1.4999230804272632e+00 -2.5882419128467768e-08 0.0000000000000000e+00  5.2278400203508502e-01 -5.2856238699024562e-09 0.0000000000000000e+00  5.2278399274831289e-01 -2.6263148442796198e-09 0.0000000000000000e+00  0.0000000000000000e+00 0.0000000000000000e+00 0.0000000000000000e+00  1.0547575567102789e+00 -9.4375441132320560e-09 0.0000000000000000e+00  1.3236896161841210e+00 -3.3911937794204756e-08 0.0000000000000000e+00  6.2110991344587940e-01 -2.2570744618804431e-08 0.0000000000000000e+00  6.2110987997271572e-01 -1.3452769419606841e-08 0.0000000000000000e+00  0.0000000000000000e+00 0.0000000000000000e+00 0.0000000000000000e+00  1.0081938985722734e+00 -2.9441846536093221e-08 0.0000000000000000e+00  1.3639553392242201e+00 -6.2951938924017727e-08 0.0000000000000000e+00  1.3943928710645064e+00 -1.2238584504890653e-07 0.0000000000000000e+00  1.4981010497640728e+00 -9.9043659195067681e-08 0.0000000000000000e+00  6.8550939607812522e-01 -1.1232978548589292e-03 0.0000000000000000e+00  6.8431070292056961e-01 -3.1742881399814636e-04 0.0000000000000000e+00  0.0000000000000000e+00 0.0000000000000000e+00 0.0000000000000000e+00  1.4141401046896844e+00 -5.1898550689160926e-03 0.0000000000000000e+00  1.4206110921841117e+00 -1.8320253138170437e-03 0.0000000000000000e+00  6.5070943755963462e-01 -5.5302426673588047e-08 0.0000000000000000e+00  6.5070935669895003e-01 -3.9300929018689745e-08 0.0000000000000000e+00  0.0000000000000000e+00 0.0000000000000000e+00 0.0000000000000000e+00  1.0976429885216179e+00 -9.4046853783200615e-08 0.0000000000000000e+00  1.4044876346093675e+00 -1.8671363992933813e-07 0.0000000000000000e+00  1.4050131870429865e+00 -2.4872859278508229e-07 0.0000000000000000e+00  1.4999986904238398e+00 -2.4554562506780910e-07 0.0000000000000000e+00  6.6338179777601225e-01 -2.8839310606934663e-05 0.0000000000000000e+00  6.6335262117363303e-01 3.3729299046459018e-05 0.0000000000000000e+00  0.0000000000000000e+00 0.0000000000000000e+00 0.0000000000000000e+00  1.1485891381614901e+00 -5.9464291157856279e-04 0.0000000000000000e+00  1.4137359682875998e+00 -5.6832415731526904e-04 0.0000000000000000e+00  1.4092855611915367e+00 -1.0767131838218411e-04 0.0000000000000000e+00  1.5000804023256540e+00 -4.3918780097253050e-04 0.0000000000000000e+00  6.1566336472085992e-01 -5.6045823372519820e-08 0.0000000000000000e+00  6.1566326259198156e-01 -6.2942978487364847e-08 0.0000000000000000e+00  0.0000000000000000e+00 0.0000000000000000e+00 0.0000000000000000e+00  1.0939550467869592e+00 -1.7472913761648625e-07 0.0000000000000000e+00  1.3930569831934185e+00 -2.632661