<?xml version="1.0"?>
<VTKFile type="UnstructuredGrid"  version="0.1"  >
<UnstructuredGrid>
<Piece  NumberOfPoints="525" NumberOfCells="924">
<Points>
<DataArray  type="Float64"  NumberOfComponents="3"  format="ascii">0 0 0  2.2 0 0  2.2 0.41 0  0 0.41 0  0.15 0.2 0  0.25 0.2 0  0.2 0.15 0  0.2 0.25 0  0.104762 0 0  0.209524 0 0  0.314286 0 0  0.419048 0 0  0.52381 0 0  0.628571 0 0  0.733333 0 0  0.838095 0 0  0.9428569999999999 0 0  1.04762 0 0  1.15238 0 0  1.25714 0 0  1.3619 0 0  1.46667 0 0  1.57143 0 0  1.67619 0 0  1.78095 0 0  1.88571 0 0  1.99048 0 0  2.09524 0 0  2.2 0.1025 0  2.2 0.205 0  2.2 0.3075 0  2.1 0.41 0  2 0.41 0  1.9 0.41 0  1.8 0.41 0  1.7 0.41 0  1.6 0.41 0  1.5 0.41 0  1.4 0.41 0  1.3 0.41 0  1.2 0.41 0  1.1 0.41 0  1 0.41 0  0.9 0.41 0  0.8 0.41 0  0.7 0.41 0  0.6 0.41 0  0.5 0.41 0  0.4 0.41 0  0.3 0.41 0  0.2 0.41 0  0.1 0.41 0  0 0.3075 0  0 0.205 0  0 0.1025 0  0.1566987973585577 0.2250001169958213 0  0.1749998830041787 0.2433012026414423 0  0.2250001169958213 0.2433012026414423 0  0.2433012026414423 0.2250001169958213 0  0.2433012026414423 0.1749998830041787 0  0.2250001169958213 0.1566987973585577 0  0.1749998830041787 0.1566987973585577 0  0.1566987973585577 0.1749998830041787 0  0.352033 0.262216 0  1.04579 0.252253 0  1.24065 0.243419 0  0.985775 0.171509 0  1.30324 0.187395 0  0.890988 0.190768 0  1.39085 0.202767 0  0.801464 0.204685 0  1.49904 0.204666 0  0.704267 0.202289 0  1.60238 0.204951 0  0.487789 0.19191 0  1.72935 0.219637 0  1.83335 0.187427 0  2.03359 0.193642 0  0.314663 0.307348 0  0.249039 0.333583 0  2.12147 0.253405 0  2.06373 0.0836837 0  0.0734726 0.267055 0  0.143989 0.0677174 0  0.0613613 0.33781 0  0.299628 0.236829 0  0.527114 0.295386 0  0.262384 0.26549 0  0.275777 0.18341 0  1.74578 0.330928 0  1.84001 0.302448 0  1.64998 0.313838 0  0.648421 0.302367 0  1.54544 0.308508 0  0.755686 0.306156 0  1.42668 0.314809 0  0.870524 0.298596 0  1.22553 0.112785 0  1.05603 0.147372 0  0.969346 0.329867 0  1.32527 0.276284 0  2.02914 0.29511 0  1.88168 0.119486 0  1.79545 0.104842 0  1.35688 0.0892539 0  1.69041 0.105324 0  0.914199 0.09555660000000001 0  1.58234 0.102923 0  0.61843 0.10815 0  1.47999 0.101161 0  0.725217 0.104273 0  0.821727 0.102306 0  1.96725 0.105778 0  0.418624 0.241547 0  0.135226 0.239087 0  1.14921 0.314841 0  0.404508 0.333259 0  0.590155 0.206269 0  2.12554 0.150731 0  1.93166 0.22436 0  0.104689 0.190046 0  0.267856 0.07447529999999999 0  0.269368 0.221581 0  0.434446 0.114927 0  1.0089 0.07933809999999999 0  0.953023 0.246698 0  1.25853 0.33355 0  1.05268 0.340828 0  2.1369 0.067383 0  0.522398 0.112537 0  1.3421 0.348929 0  0.215186 0.289473 0  0.203197 0.335348 0  1.13984 0.190728 0  1.93813 0.330504 0  1.10505 0.0883705 0  0.341988 0.0824728 0  0.253113 0.138035 0  0.291932 0.131907 0  0.203713 0.102439 0  0.150375 0.134668 0  0.151494 0.309119 0  0.354384 0.17896 0  0.06853670000000001 0.100776 0  0.424128 0.180088 0  0.474925 0.0568661 0  2.10843 0.347669 0  2.160735 0.2804525 0  2.160735 0.2292025 0  2.2 0.25625 0  2.079485 0.04184185 0  2.027105 0.04184185 0  2.04286 0 0  0.1767565 0.0338587 0  0.1243755 0.0338587 0  0.157143 0 0  0.08068065000000001 0.373905 0  0.03068065 0.373905 0  0.05 0.41 0  0.03068065 0.322655 0  0 0.35875 0  0.281851 0.3204655 0  0.2745195 0.3717915 0  0.3073315 0.358674 0  0.06741695 0.3024325 0  0.0367363 0.2872775 0  0.3071455 0.2720885 0  0.3258305 0.2495225 0  0.333348 0.284782 0  0.2557115 0.2995365 0  0.2885235 0.286419 0  2.075305 0.2742575 0  2.031365 0.244376 0  2.07753 0.2235235 0  2.01549 0.09473085000000001 0  1.978865 0.052889 0  2.00042 0.14971 0  2.04866 0.13866285 0  0.472869 0.2684665 0  0.4532065 0.2167285 0  0.5074514999999999 0.243648 0  2.16277 0.1778655 0  2.16277 0.1266155 0  2.2 0.15375 0  1.90667 0.171923 0  1.882505 0.2058935 0  1.857515 0.1534565 0  1.885835 0.263404 0  1.83668 0.2449375 0  0.6042925 0.1572095 0  0.647211 0.204279 0  0.6613485 0.1552195 0  0.3595855 0.3203035 0  0.3782705 0.2977375 0  0.155113 0.241194 0  0.1459625 0.2320435 0  0.1646446609406726 0.2353553390593274 0  0.259539 0.179205 0  0.2628885 0.191705 0  0.2482962819455563 0.1870590127797247 0  0.281006 0.2511595 0  1.0209025 0.1594405 0  1.05091 0.1998125 0  1.0157825 0.211881 0  1.264385 0.15009 0  1.23309 0.178102 0  1.271945 0.215407 0  1.291205 0.10101945 0  1.33006 0.13832445 0  0.928528 0.0477783 0  0.876147 0.0477783 0  0.890476 0 0  0.9025935 0.1431623 0  0.9499869999999999 0.1335328 0  0.9383815 0.1811385 0  0.867963 0.0989313 0  0.8563575 0.146537 0  0.8299110000000001 0.051153 0  1.411775 0.04462695 0  1.35939 0.04462695 0  1.414285 0 0  1.373865 0.14601045 0  1.347045 0.195081 0  1.418435 0.09520745 0  1.43542 0.151964 0  1.47333 0.0505805 0  0.7775300000000001 0.051153 0  0.785714 0 0  0.8115954999999999 0.1534955 0  0.8462259999999999 0.1977265 0  0.7734719999999999 0.1032895 0  0.7633405 0.154479 0  0.729275 0.0521365 0  1.52571 0.0505805 0  1.51905 0 0  1.489515 0.1529135 0  1.444945 0.2037165 0  1.531165 0.102042 0  1.54069 0.1537945 0  1.576885 0.0514615 0  1.9804 0.259735 0  1.982625 0.209001 0  1.820005 0.356224 0  1.870005 0.356224 0  1.85 0.41 0  1.78468 0.2610425 0  1.78135 0.203532 0  1.72289 0.370464 0  1.77289 0.370464 0  1.75 0.41 0  1.792895 0.316688 0  1.737565 0.2752825 0  1.62499 0.361919 0  1.67499 0.361919 0  1.65 0.41 0  1.69788 0.322383 0  1.689665 0.2667375 0  1.62618 0.2593945 0  1.665865 0.212294 0  0.6242105 0.3561835 0  0.6742105 0.3561835 0  0.6499999999999999 0.41 0  0.6192880000000001 0.254318 0  0.6763440000000001 0.252328 0  1.52272 0.359254 0  1.57272 0.359254 0  1.55 0.41 0  1.59771 0.311173 0  1.57391 0.2567295 0  1.52224 0.256587 0  1.55071 0.2048085 0  0.727843 0.358078 0  0.7778430000000001 0.358078 0  0.75 0.41 0  0.7020535 0.3042615 0  0.7299765 0.2542225 0  0.778575 0.2554205 0  0.7528655 0.203487 0  1.41334 0.3624045 0  1.46334 0.3624045 0  1.45 0.41 0  1.48606 0.3116585 0  1.46286 0.2597375 0  1.408765 0.258788 0  0.8352619999999999 0.354298 0  0.885262 0.354298 0  0.8500000000000001 0.41 0  0.813105 0.302376 0  0.8359939999999999 0.2516405 0  0.880756 0.244682 0  0.9346730000000001 0.3699335 0  0.984673 0.3699335 0  0.95 0.41 0  0.9199349999999999 0.3142315 0  0.676894 0.0521365 0  0.680952 0 0  0.714742 0.153281 0  0.6718235 0.1062115 0  0.6235005 0.054075 0  1.629265 0.0514615 0  1.62381 0 0  1.59236 0.153937 0  1.636375 0.1041235 0  1.646395 0.1551375 0  1.6833 0.052662 0  1.73568 0.052662 0  1.72857 0 0  1.70988 0.1624805 0  1.74293 0.105083 0  1.7624 0.1622395 0  1.7882 0.052421 0  1.84058 0.052421 0  1.83333 0 0  1.8144 0.1461345 0  1.838565 0.112164 0  1.883695 0.059743 0  1.124605 0.3624205 0  1.174605 0.3624205 0  1.15 0.41 0  1.314255 0.2318395 0  1.28296 0.2598515 0  1.35806 0.2395255 0  1.375975 0.2955465 0  1.92648 0.052889 0  1.938095 0 0  1.924465 0.112632 0  1.949455 0.165069 0  0.352254 0.3716295 0  0.402254 0.3716295 0  0.35 0.41 0  0.513557 0.352693 0  0.563557 0.352693 0  0.55 0.41 0  0.5877675 0.2988765 0  0.5586344999999999 0.2508275 0  0.538972 0.1990895 0  0.452254 0.3716295 0  0.45 0.41 0  0.465811 0.3143225 0  0.411566 0.287403 0  0.3853285 0.2518815 0  0.1199575 0.2145665 0  0.0890808 0.2285505 0  0.1043493 0.253071 0  0.2245195 0.3717915 0  0.25 0.41 0  0.291071 0.03723765 0  0.23869 0.03723765 0  0.261905 0 0  0.265876 0.2435355 0  0.2563345 0.2232905 0  0.2528425 0.245245 0  0.284498 0.229205 0  1.032465 0.11335505 0  0.9973375 0.12542355 0  0.9615494999999999 0.08744735000000001 0  0.9220055 0.218733 0  0.9693989999999999 0.2091035 0  0.9611845 0.2882825 0  0.9117735 0.272647 0  1.229265 0.371775 0  1.279265 0.371775 0  1.25 0.41 0  1.02634 0.375414 0  1.07634 0.375414 0  1.05 0.41 0  1.011013 0.3353475 0  2.11607 0.0336915 0  2.16845 0.0336915 0  2.14762 0 0  2.16845 0.0849415 0  2.2 0.05125 0  2.100315 0.07553335 0  0.5562765000000001 0.159403 0  0.570414 0.1103435 0  0.5050935 0.1522235 0  1.32105 0.3794645 0  1.37105 0.3794645 0  1.35 0.41 0  1.333685 0.3126065 0  1.38439 0.331869 0  0.9994065 0.2494755 0  1.007568 0.29106 0  1.300315 0.3412395 0  1.2919 0.304917 0  2.13122 0.109057 0  2.094635 0.11720735 0  0.2725725 0.2024955 0  0.259684 0.2107905 0  0.2482962819455563 0.2129409872202754 0  0.2877025 0.2101195 0  2.123505 0.202068 0  2.079565 0.1721865 0  1.02826 0.03966905 0  0.9758784999999999 0.03966905 0  0.9952384999999999 0 0  1.049235 0.2965405 0  1.100945 0.3278345 0  1.0975 0.283547 0  0.5711200000000001 0.054075 0  0.5761905 0 0  0.523104 0.0562685 0  1.24959 0.2884845 0  1.20387 0.3241955 0  1.19493 0.27913 0  0.238785 0.2774815 0  0.2321125 0.311528 0  0.226118 0.3344655 0  0.2015985 0.3726739999999999 0  1.144525 0.2527845 0  1.190245 0.2170735 0  1.092815 0.2214905 0  0.2091915 0.3124105 0  0.220093 0.266387 0  0.243692 0.2543955 0  0.2353553390593274 0.2353553390593274 0  0.478422 0.113732 0  0.4611175 0.1534185 0  1.919065 0.370252 0  1.969065 0.370252 0  1.95 0.41 0  1.983635 0.312807 0  2.01457 0.352555 0  1.88907 0.316476 0  1.934895 0.277432 0  1.182685 0.1517565 0  1.097935 0.16905 0  1.128715 0.04418525 0  1.076335 0.04418525 0  1.1 0 0  1.056975 0.08385429999999999 0  1.08054 0.11787125 0  1.122445 0.13954925 0  1.16529 0.10057775 0  0.304922 0.07847404999999999 0  0.328137 0.0412364 0  0.380518 0.0412364 0  0.366667 0 0  0.388217 0.09869990000000001 0  0.426747 0.0574635 0  0.31696 0.1071899 0  0.279894 0.10319115 0  0.2725225 0.134971 0  0.2604845 0.10625515 0  0.228413 0.120237 0  0.2143565 0.129569 0  0.2390565 0.147367 0  1.30701 0.04462695 0  1.30952 0 0  1.241335 0.0563925 0  0.2357845 0.08845715 0  1.188955 0.0563925 0  1.20476 0 0  0.2066185 0.0512195 0  0.173851 0.08507819999999999 0  0.0367363 0.2360275 0  0 0.25625 0  0.264445 0.1607225 0  0.248207 0.1565175 0  0.2353553390593274 0.1646446609406726 0  0.2838545 0.1576585 0  0.130694 0.182523 0  0.1273445 0.195023 0  0.1517037180544437 0.1870590127797247 0  0.127532 0.162357 0  0.153537 0.154834 0  0.0523445 0.197523 0  0
[...]
<PointData  Vectors="u"> 
<DataArray  type="Float64"  Name="u"  NumberOfComponents="3" format="ascii">-5.6829131365240861e-16 0.0000000000000000e+00 0.0000000000000000e+00  0.0000000000000000e+00 0.0000000000000000e+00 0.0000000000000000e+00  0.0000000000000000e+00 0.0000000000000000e+00 0.0000000000000000e+00  3.9260580483663381e-16 0.0000000000000000e+00 0.0000000000000000e+00  0.0000000000000000e+00 0.0000000000000000e+00 0.0000000000000000e+00  0.0000000000000000e+00 0.0000000000000000e+00 0.0000000000000000e+00  0.0000000000000000e+00 0.0000000000000000e+00 0.0000000000000000e+00  0.0000000000000000e+00 0.0000000000000000e+00 0.0000000000000000e+00  0.0000000000000000e+00 0.0000000000000000e+00 0.0000000000000000e+00  0.0000000000000000e+00 9.4927258376469497e-16 0.0000000000000000e+00  0.0000000000000000e+00 6.2521834236955863e-16 0.0000000000000000e+00  0.0000000000000000e+00 -9.2212809854491313e-16 0.0000000000000000e+00  0.0000000000000000e+00 0.0000000000000000e+00 0.0000000000000000e+00  0.0000000000000000e+00 7.2044925225956214e-16 0.0000000000000000e+00  0.0000000000000000e+00 0.0000000000000000e+00 0.0000000000000000e+00  0.0000000000000000e+00 -5.1917861408449057e-16 0.0000000000000000e+00  0.0000000000000000e+00 0.0000000000000000e+00 0.0000000000000000e+00  0.0000000000000000e+00 0.0000000000000000e+00 0.0000000000000000e+00  0.0000000000000000e+00 4.5444030405836296e-16 0.0000000000000000e+00  0.0000000000000000e+00 0.0000000000000000e+00 0.0000000000000000e+00  0.0000000000000000e+00 0.0000000000000000e+00 0.0000000000000000e+00  0.0000000000000000e+00 -1.1786721922336795e-15 0.0000000000000000e+00  -3.5968497770513381e-16 -3.2700266572060718e-16 0.0000000000000000e+00  -5.0428923544124461e-16 0.0000000000000000e+00 0.0000000000000000e+00  0.0000000000000000e+00 0.0000000000000000e+00 0.0000000000000000e+00  0.0000000000000000e+00 -4.6363883105171438e-16 0.0000000000000000e+00  0.0000000000000000e+00 4.4595217963087195e-16 0.0000000000000000e+00  0.0000000000000000e+00 0.0000000000000000e+00 0.0000000000000000e+00  1.1249999998698996e+00 5.4608893662752432e-10 0.0000000000000000e+00  1.5000000000007419e+00 9.2299860556723063e-10 0.0000000000000000e+00  1.1250000001302420e+00 5.4571785671370803e-10 0.0000000000000000e+00  0.0000000000000000e+00 0.0000000000000000e+00 0.0000000000000000e+00  0.0000000000000000e+00 7.1612650131441523e-16 0.0000000000000000e+00  0.0000000000000000e+00 0.0000000000000000e+00 0.0000000000000000e+00  0.0000000000000000e+00 0.0000000000000000e+00 0.0000000000000000e+00  0.0000000000000000e+00 0.0000000000000000e+00 0.0000000000000000e+00  0.0000000000000000e+00 0.0000000000000000e+00 0.0000000000000000e+00  0.0000000000000000e+00 0.0000000000000000e+00 0.0000000000000000e+00  0.0000000000000000e+00 0.0000000000000000e+00 0.0000000000000000e+00  0.0000000000000000e+00 0.0000000000000000e+00 0.0000000000000000e+00  0.0000000000000000e+00 -3.6338058821777437e-16 0.0000000000000000e+00  0.0000000000000000e+00 0.0000000000000000e+00 0.0000000000000000e+00  0.0000000000000000e+00 9.6087040690468464e-16 0.0000000000000000e+00  0.0000000000000000e+00 3.7218369629693549e-16 0.0000000000000000e+00  0.0000000000000000e+00 0.0000000000000000e+00 0.0000000000000000e+00  0.0000000000000000e+00 -8.5219151360295334e-16 0.0000000000000000e+00  0.0000000000000000e+00 0.0000000000000000e+00 0.0000000000000000e+00  0.0000000000000000e+00 0.0000000000000000e+00 0.0000000000000000e+00  0.0000000000000000e+00 0.0000000000000000e+00 0.0000000000000000e+00  0.0000000000000000e+00 1.4693005038944613e-15 0.0000000000000000e+00  0.0000000000000000e+00 9.5560828392614483e-16 0.0000000000000000e+00  0.0000000000000000e+00 0.0000000000000000e+00 0.0000000000000000e+00  1.1250000000000000e+00 0.0000000000000000e+00 0.0000000000000000e+00  1.5000000000000018e+00 0.0000000000000000e+00 0.0000000000000000e+00  1.1250000000000016e+00 8.2496906285558146e-16 0.0000000000000000e+00  0.0000000000000000e+00 0.0000000000000000e+00 0.0000000000000000e+00  -1.0558624052378967e-15 -6.5987529724696916e-16 0.0000000000000000e+00  -3.9843958970994896e-16 0.0000000000000000e+00 0.0000000000000000e+00  0.0000000000000000e+00 0.0000000000000000e+00 0.0000000000000000e+00  0.0000000000000000e+00 0.0000000000000000e+00 0.0000000000000000e+00  -1.1392716056437643e-15 -4.1443821975341619e-16 0.0000000000000000e+00  -6.3334349172669269e-16 4.4795006270161549e-16 0.0000000000000000e+00  -3.9278446240220583e-16 0.0000000000000000e+00 0.0000000000000000e+00  1.2558131176215697e+00 -3.3509161165373547e-01 0.0000000000000000e+00  1.4202906755137501e+00 5.1530136391679482e-05 0.0000000000000000e+00  1.4473188093078027e+00 -3.4516272032494112e-06 0.0000000000000000e+00  1.4599987699987786e+00 1.2808383810187542e-04 0.0000000000000000e+00  1.4889365998379860e+00 -3.6615910882510937e-06 0.0000000000000000e+00  1.4928453650901616e+00 4.0740379913029132e-04 0.0000000000000000e+00  1.4998219708630576e+00 -2.2369388280172587e-06 0.0000000000000000e+00  1.5000952950873667e+00 9.0989569183904555e-04 0.0000000000000000e+00  1.4999960154801151e+00 -7.9843617992999655e-07 0.0000000000000000e+00  1.4999519025615011e+00 1.4260556600774392e-03 0.0000000000000000e+00  1.4999999143727536e+00 -2.0815740747973712e-07 0.0000000000000000e+00  1.4579963355159467e+00 -5.2189993172828530e-03 0.0000000000000000e+00  1.4923530578788882e+00 -1.0454761280146530e-08 0.0000000000000000e+00  1.4889776235772627e+00 1.0755924772575533e-08 0.0000000000000000e+00  1.4953954495658406e+00 3.3572198875921883e-09 0.0000000000000000e+00  1.4330755360379364e+00 -4.3105303483147628e-01 0.0000000000000000e+00  1.7600529918049133e+00 -2.7566281110577973e-01 0.0000000000000000e+00  1.4163696358744517e+00 1.2520516379701146e-09 0.0000000000000000e+00  9.7468252432353308e-01 9.6119406833690396e-10 0.0000000000000000e+00  1.2766265802169010e+00 5.6798558481125472e-01 0.0000000000000000e+00  1.5520225808000834e+00 -2.9493714001791060e-01 0.0000000000000000e+00  1.0838250056604493e+00 2.9601855175820779e-01 0.0000000000000000e+00  8.2824326136685589e-01 -4.1567424600316200e-01 0.0000000000000000e+00  1.2111917351031767e+00 -2.2373942702583121e-02 0.0000000000000000e+00  1.1335978552740278e+00 -6.0920650027520029e-01 0.0000000000000000e+00  3.3874731002397684e-01 2.2176212895047209e-01 0.0000000000000000e+00  9.3398471043510933e-01 1.5656934154929397e-09 0.0000000000000000e+00  1.1610548583392681e+00 7.0928967951452393e-09 0.0000000000000000e+00  1.0771906036231409e+00 -3.8975528998548043e-08 0.0000000000000000e+00  1.1598716194291026e+00 -4.0218306917067966e-05 0.0000000000000000e+00  1.1175883312338022e+00 -2.3111822058006436e-07 0.0000000000000000e+00  1.1337101052391982e+00 7.8182660751084296e-04 0.0000000000000000e+00  1.0696138143943328e+00 -8.0292158557125037e-07 0.0000000000000000e+00  1.1870029208095387e+00 3.3783014441519075e-04 0.0000000000000000e+00  1.1964751440991928e+00 -2.3885200953999328e-06 0.0000000000000000e+00  1.3814752371073318e+00 3.8886641488739224e-05 0.0000000000000000e+00  9.4340672040217455e-01 6.2988375943132447e-05 0.0000000000000000e+00  1.3186315516556435e+00 -2.6590981060141838e-06 0.0000000000000000e+00  1.2101792210310747e+00 2.2007252759266977e-09 0.0000000000000000e+00  1.2389895080334781e+00 7.0750763930752311e-09 0.0000000000000000e+00  1.1419408259524786e+00 6.0976984571212029e-09 0.0000000000000000e+00  1.0218124009130500e+00 -1.3039077484542594e-06 0.0000000000000000e+00  1.1453787707745284e+00 -1.7483906711874268e-08 0.0000000000000000e+00  1.0726473593506372e+00 1.4054060959024865e-04 0.0000000000000000e+00  1.1280886308887697e+00 -1.4079934512244404e-07 0.0000000000000000e+00  1.1679559883275583e+00 2.2952097552431053e-03 0.0000000000000000e+00  1.1151378902473503e+00 -5.0748455467389146e-07 0.0000000000000000e+00  1.1391635163502578e+00 7.3806316286886267e-04 0.0000000000000000e+00  1.1241099525990570e+00 3.6738699076322508e-04 0.0000000000000000e+00  1.1486018382669594e+00 3.4631835250660631e-09 0.0000000000000000e+00  1.3594788859734561e+00 -1.2156196582073836e-01 0.0000000000000000e+00  6.0345357033450808e-01 5.5166865521334252e-01 0.0000000000000000e+00  1.0693673838591038e+00 1.3214140220892569e-06 0.0000000000000000e+00  1.0364261667831089e+00 -1.1865901647712541e-01 0.0000000000000000e+00  1.4967667891071561e+00 -8.2665680949464432e-04 0.0000000000000000e+00  1.3948795591552308e+00 1.1668581962598951e-09 0.0000000000000000e+00  1.4866219043769480e+00 7.7050390857863763e-09 0.0000000000000000e+00  6.3048591632337458e-01 -9.9961759965572008e-02 0.0000000000000000e+00  1.5392498041453242e+00 3.2779756251664416e-01 0.0000000000000000e+00  3.1494257500520512e-01 -2.9026482951999583e-01 0.0000000000000000e+00  1.2141505388977942e+00 7.6049040820709762e-02 0.0000000000000000e+00  9.3640637862730147e-01 3.1122584481025615e-05 0.0000000000000000e+00  1.4378822411917842e+00 1.9658766187406388e-04 0.0000000000000000e+00  9.1017371157120996e-01 -1.6709979376846845e-06 0.0000000000000000e+00  8.4148192628440910e-01 1.2768694308654802e-05 0.0000000000000000e+00  8.2402955327134375e-01 3.5074376066674042e-10 0.0000000000000000e+00  1.1993307307140610e+00 1.4294620354070283e-02 0.0000000000000000e+00  7.6060107516944331e-01 -8.0239877012980814e-07 0.0000000000000000e+00  1.7080635368087083e+00 -1.9349757336969528e-01 0.0000000000000000e+00  1.8993120644647195e+00 -1.1017031771740207e-02 0.0000000000000000e+00  1.4927291904727689e+00 7.4194795879434520e-06 0.0000000000000000e+00  9.3778985695580452e-01 2.8706622580067989e-09 0.0000000000000000e+00  1.0144854802614931e+00 6.1018126483511255e-06 0.0000000000000000e+00  1.1828980374522273e+00 2.4963265790931119e-01 0.0000000000000000e+00  1.0013169637400425e+00 5.5072637135970071e-01 0.0000000000000000e+00  1.1417369360759404e+00 5.4193383913130333e-01 0.0000000000000000e+00  1.7609683407042924e+00 3.6593611400978179e-02 0.0000000000000000e+00  1.0955359601204109e+00 -5.7032935886664904e-01 0.0000000000000000e+00  1.7807515158709735e+00 4.6789076540337959e-01 0.0000000000000000e+00  1.1025872384216240e+00 9.4264072592349424e-02 0.0000000000000000e+00  1.2376186070969937e+00 -4.1901102523369121e-01 0.0000000000000000e+00  1.3616204798035687e+00 1.3485461004232825e-02 0.0000000000000000e+00  7.4262444935995242e-01 1.7561626149072810e-02 0.0000000000000000e+00  7.7348803422570300e-01 3.7343331948651101e-10 0.0000000000000000e+00  1.2967966771892299e+00 7.7852742704492976e-10 0.0000000000000000e+00  1.4790924089803128e+00 1.0163916255513212e-09 0.0000000000000000e+00  1.4062500000277476e+00 8.1714148970689067e-10 0.0000000000000000e+00  5.4983050941389966e-01 2.3676844650629140e-10 0.0000000000000000e+00  5.4983051015808615e-01 4.1535569948117291e-10 0.0000000000000000e+00  0.0000000000000000e+00 5.6387586026566810e-16 0.0000000000000000e+00  1.1534654141058849e+00 -4.9348299358913432e-02 0.0000000000000000e+00  9.3040844985455562e-01 -1.0732517550163868e-01 0.0000000000000000e+00  0.0000000000000000e+00 -1.7151315882045380e-15 0.0000000000000000e+00  7.4152152079706868e-01 1.1472037554002115e-01 0.0000000000000000e+00  5.2812715899263241e-01 5.4858077562059578e-02 0.0000000000000000e+00  0.0000000000000000e+00 -7.6264426888676149e-16 0.0000000000000000e+00  1.0643737303327694e+00 2.3154694881672838e-01 0.0000000000000000e+00  6.5624999999999967e-01 0.0000000000000000e+00 0.0000000000000000e+00  1.6053245549483586e+00 -4.1515903689217631e-01 0.0000000000000000e+00  1.0938499942761357e+00 -1.0851212355907824e-01 0.0000000000000000e+00  1.1444660974793275e+00 -1.7131759631837376e-01 0.0000000000000000e+00  1.3094955055989665e+00 4.9739163563858957e-01 0.0000000000000000e+00  1.2806236044091581e+00 3.5997280602697068e-01 0.0000000000000000e+00  1.2545196514482031e+00 -5.3365362785827752e-01 0.0000000000000000e+00  1.1073208893495765e+00 -3.9727216693096962e-01 0.0000000000000000e+00  1.3282227460862568e+00 -4.2206515319840004e-01 0.0000000000000000e+00  1.6811346032807533e+00 -4.9611172293775302e-01 0.0000000000000000e+00  1.4185400133716703e+00 -5.7596291135092903e-01 0.0000000000000000e+00  1.3287947174240762e+00 1.7017841066191517e-09 0.0000000000000000e+00  1.4446590336406373e+00 3.1806209332601929e-09 0.0000000000000000e+00  1.4877530019981928e+00 2.1465132409801232e-09 0.0000000000000000e+00  1.0659981425818867e+00 1.9072670823994677e-09 0.0000000000000000e+00  6.7414314438240164e-01 1.0238846876449397e-09 0.0000000000000000e+00  1.3908869468217897e+00 3.9038698761363882e-09 0.0000000000000000e+00  1.3429285866094862e+00 2.2787399016138541e-09 0.0000000000000000e+00  1.3449768543322220e+00 -6.4285861105659342e-02 0.0000000000000000e+00  1.4247892346815074e+00 -4.4428026892146810e-02 0.0000000000000000e+00  1.4293688895389616e+00 -2.8297988582820562e-02 0.0000000000000000e+00  1.4737198897807648e+00 9.9700390970007673e-10 0.0000000000000000e+00  1.2806973288712311e+00 7.5159889965958564e-10 0.0000000000000000e+00  1.4062499999736249e+00 8.1674832967209041e-10 0.0000000000000000e+00  1.4609486793290909e+00 8.6206004141663679e-09 0.0000000000000000e+00  1.4999715046180582e+00 1.0158606485201001e-08 0.0000000000000000e+00  1.4051731520330895e+00 9.6827933544972594e-09 0.0000000000000000e+00  1.3782500630629826e+00 8.5385799987988788e-09 0.0000000000000000e+00  1.4430694555781614e+00 1.0287516209005216e-08 0.0000000000000000e+00  1.4188011028720884e+00 2.5666076450367907e-03 0.0000000000000000e+00  1.4996486642771838e+00 1.1221119243719790e-03 0.0000000000000000e+00  1.4127796014346830e+00 1.6655254172508011e-03 0.0000000000000000e+00  1.2425636028162390e+00 -2.5004263246868669e-01 0.0000000000000000e+00  1.2790554927185762e+00 -2.4569560780020569e-01 0.0000000000000000e+00  4.0873219582841097e-01 3.6582152756472203e-01 0.0000000000000000e+00  3.1748282868387862e-01 3.7999480421737436e-01 0.0000000000000000e+00  0.0000000000000000e+00 0.0000000000000000e+00 0.0000000000000000e+00  1.7752437641640209e-01 2.3214780563493370e-01 0.0000000000000000e+00  1.1223369471180898e-01 9.5189422502174714e-02 0.0000000000000000e+00  0.0000000000000000e+00 0.0000000000000000e+00 0.0000000000000000e+00  9.0972923720218291e-01 -5.6371412213909622e-01 0.0000000000000000e+00  1.4259353289179846e+00 7.3731204447021937e-05 0.0000000000000000e+00  1.4990416346112536e+00 5.3379266291645783e-05 0.0000000000000000e+00  1.4983078632823885e+00 9.2157365803249784e-05 0.0000000000000000e+00  1.3923785648002414e+00 -3.4451201038189953e-06 0.0000000000000000e+00  1.4741741841717058e+00 -3.3203547852935725e-06 0.0000000000000000e+00  1.4961348145133821e+00 -3.9094142445482520e-06 0.0000000000000000e+00  1.1140845872029976e+00 -2.2184028985250477e-06 0.0000000000000000e+00  1.3413197142592397e+00 -2.6668104002492306e-06 0.0000000000000000e+00  6.1780539126404532e-01 3.5147574907281761e-05 0.0000000000000000e+00  6.1790204833113205e-01 6.1125338816333180e-05 0.0000000000000000e+00  0.0000000000000000e+00 8.9225781770743968e-16 0.0000000000000000e+00  1.3636902871820069e+00 2.8210067320817700e-04 0.0000000000000000e+00  1.3177938347257032e+00 1.5356725238437708e-04 0.0000000000000000e+00  1.4797325329957494e+00 2.3792605443199912e-04 0.0000000000000000e+00  1.0987481821403802e+00 2.3504501302561677e-04 0.0000000000000000e+00  1.3783068818338391e+00 4.5114123277944173e-04 0.0000000000000000e+00  6.5552528831841728e-01 1.0402461352258909e-04 0.0000000000000000e+00  5.8199145108755534e-01 -2.5804745514479784e-07 0.0000000000000000e+00  5.8199075943066036e-01 -4.0027493104793515e-07 0.0000000000000000e+00  0.0000000000000000e+00 3.0927352550487463e-16 0.0000000000000000e+00  1.3757951313261512e+00 -2.1195292912303072e-06 0.0000000000000000e+00  1.4964879445741075e+00 -3.0117838420440069e-06 0.0000000000000000e+00  1.0697404928073309e+00 -8.6469587423728518e-07 0.0000000000000000e+00  1.3996013188747094e+00 -1.3153650674344520e-06 0.0000000000000000e+00  6.4888540110233639e-01 -1.6961401605320013e-07 0.0000000000000000e+00  6.5576578193851720e-01 1.5304744718408313e-04 0.0000000000000000e+00  0.0000000000000000e+00 -4.7673943758091596e-16 0.0000000000000000e+00  1.4057765996471139e+00 6.8590036067358825e-04 0.0000000000000000e+00  1.4982061524571406e+00 6.2960871719350568e-04 0.0000000000000000e+00  1.1316100376515275e+00 5.2928836534156065e-04 0.0000000000000000e+00  1.4096185045045637e+00 9.6037821866581344e-04 0.0000000000000000e+00  6.6686089636065216e-01 2.1811185367288984e-04 0.0000000000000000e+00  6.4888564207814492e-01 -9.0339414642504288e-08 0.0000000000000000e+00  -6.0435687393131652e-16 0.0000000000000000e+00 0.0000000000000000e+00  1.4031643132951130e+00 -7.6233937638387173e-07 0.0000000000000000e+00  1.4999411832040581e+00 -1.3988012446409135e-06 0.0000000000000000e+00  1.1216410315240375e+00 -2.8031312103215882e-07 0.0000000000000000e+00  1.4064125709175288e+00 -4.1888390670904110e-07 0.0000000000000000e+00  6.5856967658975407e-01 -4.5021378017935993e-08 0.0000000000000000e+00  1.3930664973591265e+00 4.6664748476609386e-09 0.0000000000000000e+00  1.4994286255730562e+00 5.3546163362244004e-09 0.0000000000000000e+00  6.8374663173200889e-01 2.7435488933481814e-09 0.0000000000000000e+00  6.8374663567752514e-01 2.3590836947297937e-09 0.0000000000000000e+00  0.0000000000000000e+00 0.0000000000000000e+00 0.0000000000000000e+00  1.3878966532622117e+00 6.7070151878555294e-09 0.0000000000000000e+00  1.4999230809371413e+00 6.3489426521071502e-09 0.0000000000000000e+00  5.2278397162429535e-01 2.1516821812882150e-10 0.0000000000000000e+00  5.2278397314984693e-01 1.5134586376347331e-09 0.0000000000000000e+00  0.0000000000000000e+00 0.0000000000000000e+00 0.0000000000000000e+00  1.0547575323083762e+00 5.4411052156520805e-09 0.0000000000000000e+00  1.3236895847966401e+00 -3.0788318594920117e-09 0.0000000000000000e+00  6.2110985404989139e-01 -1.6997324480807149e-08 0.0000000000000000e+00  6.2110983193076130e-01 -5.1367112642887069e-09 0.0000000000000000e+00  0.0000000000000000e+00 0.0000000000000000e+00 0.0000000000000000e+00  1.0081938477787857e+00 -9.2778317275212069e-09 0.0000000000000000e+00  1.3639553019772455e+00 -2.9956152129788829e-08 0.0000000000000000e+00  1.3943928351056789e+00 -1.1798343213559879e-07 0.0000000000000000e+00  1.4981010447149516e+00 -6.8426625022588341e-08 0.0000000000000000e+00  6.8251404115629111e-01 -3.7268402100647539e-04 0.0000000000000000e+00  6.8242484317844188e-01 2.7267302050340607e-04 0.0000000000000000e+00  0.0000000000000000e+00 0.0000000000000000e+00 0.0000000000000000e+00  1.4113639564407143e+00 -1.3627372553425411e-03 0.0000000000000000e+00  1.4190780700946648e+00 9.6407769786462192e-04 0.0000000000000000e+00  6.5070942560723943e-01 -9.3690830353193238e-08 0.0000000000000000e+00  6.5070930012783534e-01 -4.6609510690934861e-08 0.0000000000000000e+00  0.0000000000000000e+00 0.0000000000000000e+00 0.0000000000000000e+00  1.0976429315790752e+00 -1.0407909004224079e-07 0.0000000000000000e+00  1.4044876195988134e+00 -2.6807013581301950e-07 0.0000000000000000e+00  1.4050132370173598e+00 -5.2485387035904467e-07 0.0000000000000000e+00  1.4999986905986458e+00 -4.2887265149054816e-07 0.0000000000000000e+00  6.6237029715767004e-01 3.2980463043766795e-04 0.0000000000000000e+00  6.6283180226816008e-01 2.4827796193337739e-04 0.0000000000000000e+00  0.0000000000000000e+00 0.0000000000000000e+00 0.0000000000000000e+00  1.1468030267922034e+00 8.3822332496283130e-04 0.0000000000000000e+00  1.4128567822286040e+00 1.2213474079247628e-03 0.0000000000000000e+00  1.4087922434792186e+00 9.9374957593611796e-04 0.0000000000000000e+00  1.5000974624531205e+00 1.2201640320984915e-03 0.0000000000000000e+00  6.1566383859348139e-01 -2.8433608103926214e-07 0.0000000000000000e+00  6.1566341092242916e-01 -1.7055177909906143e-07 0.0000000000000000e+00  0.0000000000000000e+00 0.0000000000000000e+00 0.0000000000000000e+00  1.0939552170848537e+00 -4.5525571173101539e-07 0.0000000000000000e+00  1.3930572355746460e+00 -9.9610761271120228e-07 0.0