<?xml version="1.0"?>
<VTKFile type="UnstructuredGrid"  version="0.1"  >
<UnstructuredGrid>
<Piece  NumberOfPoints="525" NumberOfCells="924">
<Points>
<DataArray  type="Float64"  NumberOfComponents="3"  format="ascii">0 0 0  2.2 0 0  2.2 0.41 0  0 0.41 0  0.15 0.2 0  0.25 0.2 0  0.2 0.15 0  0.2 0.25 0  0.104762 0 0  0.209524 0 0  0.314286 0 0  0.419048 0 0  0.52381 0 0  0.628571 0 0  0.733333 0 0  0.838095 0 0  0.9428569999999999 0 0  1.04762 0 0  1.15238 0 0  1.25714 0 0  1.3619 0 0  1.46667 0 0  1.57143 0 0  1.67619 0 0  1.78095 0 0  1.88571 0 0  1.99048 0 0  2.09524 0 0  2.2 0.1025 0  2.2 0.205 0  2.2 0.3075 0  2.1 0.41 0  2 0.41 0  1.9 0.41 0  1.8 0.41 0  1.7 0.41 0  1.6 0.41 0  1.5 0.41 0  1.4 0.41 0  1.3 0.41 0  1.2 0.41 0  1.1 0.41 0  1 0.41 0  0.9 0.41 0  0.8 0.41 0  0.7 0.41 0  0.6 0.41 0  0.5 0.41 0  0.4 0.41 0  0.3 0.41 0  0.2 0.41 0  0.1 0.41 0  0 0.3075 0  0 0.205 0  0 0.1025 0  0.1566987973585577 0.2250001169958213 0  0.1749998830041787 0.2433012026414423 0  0.2250001169958213 0.2433012026414423 0  0.2433012026414423 0.2250001169958213 0  0.2433012026414423 0.1749998830041787 0  0.2250001169958213 0.1566987973585577 0  0.1749998830041787 0.1566987973585577 0  0.1566987973585577 0.1749998830041787 0  0.352033 0.262216 0  1.04579 0.252253 0  1.24065 0.243419 0  0.985775 0.171509 0  1.30324 0.187395 0  0.890988 0.190768 0  1.39085 0.202767 0  0.801464 0.204685 0  1.49904 0.204666 0  0.704267 0.202289 0  1.60238 0.204951 0  0.487789 0.19191 0  1.72935 0.219637 0  1.83335 0.187427 0  2.03359 0.193642 0  0.314663 0.307348 0  0.249039 0.333583 0  2.12147 0.253405 0  2.06373 0.0836837 0  0.0734726 0.267055 0  0.143989 0.0677174 0  0.0613613 0.33781 0  0.299628 0.236829 0  0.527114 0.295386 0  0.262384 0.26549 0  0.275777 0.18341 0  1.74578 0.330928 0  1.84001 0.302448 0  1.64998 0.313838 0  0.648421 0.302367 0  1.54544 0.308508 0  0.755686 0.306156 0  1.42668 0.314809 0  0.870524 0.298596 0  1.22553 0.112785 0  1.05603 0.147372 0  0.969346 0.329867 0  1.32527 0.276284 0  2.02914 0.29511 0  1.88168 0.119486 0  1.79545 0.104842 0  1.35688 0.0892539 0  1.69041 0.105324 0  0.914199 0.09555660000000001 0  1.58234 0.102923 0  0.61843 0.10815 0  1.47999 0.101161 0  0.725217 0.104273 0  0.821727 0.102306 0  1.96725 0.105778 0  0.418624 0.241547 0  0.135226 0.239087 0  1.14921 0.314841 0  0.404508 0.333259 0  0.590155 0.206269 0  2.12554 0.150731 0  1.93166 0.22436 0  0.104689 0.190046 0  0.267856 0.07447529999999999 0  0.269368 0.221581 0  0.434446 0.114927 0  1.0089 0.07933809999999999 0  0.953023 0.246698 0  1.25853 0.33355 0  1.05268 0.340828 0  2.1369 0.067383 0  0.522398 0.112537 0  1.3421 0.348929 0  0.215186 0.289473 0  0.203197 0.335348 0  1.13984 0.190728 0  1.93813 0.330504 0  1.10505 0.0883705 0  0.341988 0.0824728 0  0.253113 0.138035 0  0.291932 0.131907 0  0.203713 0.102439 0  0.150375 0.134668 0  0.151494 0.309119 0  0.354384 0.17896 0  0.06853670000000001 0.100776 0  0.424128 0.180088 0  0.474925 0.0568661 0  2.10843 0.347669 0  2.160735 0.2804525 0  2.160735 0.2292025 0  2.2 0.25625 0  2.079485 0.04184185 0  2.027105 0.04184185 0  2.04286 0 0  0.1767565 0.0338587 0  0.1243755 0.0338587 0  0.157143 0 0  0.08068065000000001 0.373905 0  0.03068065 0.373905 0  0.05 0.41 0  0.03068065 0.322655 0  0 0.35875 0  0.281851 0.3204655 0  0.2745195 0.3717915 0  0.3073315 0.358674 0  0.06741695 0.3024325 0  0.0367363 0.2872775 0  0.3071455 0.2720885 0  0.3258305 0.2495225 0  0.333348 0.284782 0  0.2557115 0.2995365 0  0.2885235 0.286419 0  2.075305 0.2742575 0  2.031365 0.244376 0  2.07753 0.2235235 0  2.01549 0.09473085000000001 0  1.978865 0.052889 0  2.00042 0.14971 0  2.04866 0.13866285 0  0.472869 0.2684665 0  0.4532065 0.2167285 0  0.5074514999999999 0.243648 0  2.16277 0.1778655 0  2.16277 0.1266155 0  2.2 0.15375 0  1.90667 0.171923 0  1.882505 0.2058935 0  1.857515 0.1534565 0  1.885835 0.263404 0  1.83668 0.2449375 0  0.6042925 0.1572095 0  0.647211 0.204279 0  0.6613485 0.1552195 0  0.3595855 0.3203035 0  0.3782705 0.2977375 0  0.155113 0.241194 0  0.1459625 0.2320435 0  0.1646446609406726 0.2353553390593274 0  0.259539 0.179205 0  0.2628885 0.191705 0  0.2482962819455563 0.1870590127797247 0  0.281006 0.2511595 0  1.0209025 0.1594405 0  1.05091 0.1998125 0  1.0157825 0.211881 0  1.264385 0.15009 0  1.23309 0.178102 0  1.271945 0.215407 0  1.291205 0.10101945 0  1.33006 0.13832445 0  0.928528 0.0477783 0  0.876147 0.0477783 0  0.890476 0 0  0.9025935 0.1431623 0  0.9499869999999999 0.1335328 0  0.9383815 0.1811385 0  0.867963 0.0989313 0  0.8563575 0.146537 0  0.8299110000000001 0.051153 0  1.411775 0.04462695 0  1.35939 0.04462695 0  1.414285 0 0  1.373865 0.14601045 0  1.347045 0.195081 0  1.418435 0.09520745 0  1.43542 0.151964 0  1.47333 0.0505805 0  0.7775300000000001 0.051153 0  0.785714 0 0  0.8115954999999999 0.1534955 0  0.8462259999999999 0.1977265 0  0.7734719999999999 0.1032895 0  0.7633405 0.154479 0  0.729275 0.0521365 0  1.52571 0.0505805 0  1.51905 0 0  1.489515 0.1529135 0  1.444945 0.2037165 0  1.531165 0.102042 0  1.54069 0.1537945 0  1.576885 0.0514615 0  1.9804 0.259735 0  1.982625 0.209001 0  1.820005 0.356224 0  1.870005 0.356224 0  1.85 0.41 0  1.78468 0.2610425 0  1.78135 0.203532 0  1.72289 0.370464 0  1.77289 0.370464 0  1.75 0.41 0  1.792895 0.316688 0  1.737565 0.2752825 0  1.62499 0.361919 0  1.67499 0.361919 0  1.65 0.41 0  1.69788 0.322383 0  1.689665 0.2667375 0  1.62618 0.2593945 0  1.665865 0.212294 0  0.6242105 0.3561835 0  0.6742105 0.3561835 0  0.6499999999999999 0.41 0  0.6192880000000001 0.254318 0  0.6763440000000001 0.252328 0  1.52272 0.359254 0  1.57272 0.359254 0  1.55 0.41 0  1.59771 0.311173 0  1.57391 0.2567295 0  1.52224 0.256587 0  1.55071 0.2048085 0  0.727843 0.358078 0  0.7778430000000001 0.358078 0  0.75 0.41 0  0.7020535 0.3042615 0  0.7299765 0.2542225 0  0.778575 0.2554205 0  0.7528655 0.203487 0  1.41334 0.3624045 0  1.46334 0.3624045 0  1.45 0.41 0  1.48606 0.3116585 0  1.46286 0.2597375 0  1.408765 0.258788 0  0.8352619999999999 0.354298 0  0.885262 0.354298 0  0.8500000000000001 0.41 0  0.813105 0.302376 0  0.8359939999999999 0.2516405 0  0.880756 0.244682 0  0.9346730000000001 0.3699335 0  0.984673 0.3699335 0  0.95 0.41 0  0.9199349999999999 0.3142315 0  0.676894 0.0521365 0  0.680952 0 0  0.714742 0.153281 0  0.6718235 0.1062115 0  0.6235005 0.054075 0  1.629265 0.0514615 0  1.62381 0 0  1.59236 0.153937 0  1.636375 0.1041235 0  1.646395 0.1551375 0  1.6833 0.052662 0  1.73568 0.052662 0  1.72857 0 0  1.70988 0.1624805 0  1.74293 0.105083 0  1.7624 0.1622395 0  1.7882 0.052421 0  1.84058 0.052421 0  1.83333 0 0  1.8144 0.1461345 0  1.838565 0.112164 0  1.883695 0.059743 0  1.124605 0.3624205 0  1.174605 0.3624205 0  1.15 0.41 0  1.314255 0.2318395 0  1.28296 0.2598515 0  1.35806 0.2395255 0  1.375975 0.2955465 0  1.92648 0.052889 0  1.938095 0 0  1.924465 0.112632 0  1.949455 0.165069 0  0.352254 0.3716295 0  0.402254 0.3716295 0  0.35 0.41 0  0.513557 0.352693 0  0.563557 0.352693 0  0.55 0.41 0  0.5877675 0.2988765 0  0.5586344999999999 0.2508275 0  0.538972 0.1990895 0  0.452254 0.3716295 0  0.45 0.41 0  0.465811 0.3143225 0  0.411566 0.287403 0  0.3853285 0.2518815 0  0.1199575 0.2145665 0  0.0890808 0.2285505 0  0.1043493 0.253071 0  0.2245195 0.3717915 0  0.25 0.41 0  0.291071 0.03723765 0  0.23869 0.03723765 0  0.261905 0 0  0.265876 0.2435355 0  0.2563345 0.2232905 0  0.2528425 0.245245 0  0.284498 0.229205 0  1.032465 0.11335505 0  0.9973375 0.12542355 0  0.9615494999999999 0.08744735000000001 0  0.9220055 0.218733 0  0.9693989999999999 0.2091035 0  0.9611845 0.2882825 0  0.9117735 0.272647 0  1.229265 0.371775 0  1.279265 0.371775 0  1.25 0.41 0  1.02634 0.375414 0  1.07634 0.375414 0  1.05 0.41 0  1.011013 0.3353475 0  2.11607 0.0336915 0  2.16845 0.0336915 0  2.14762 0 0  2.16845 0.0849415 0  2.2 0.05125 0  2.100315 0.07553335 0  0.5562765000000001 0.159403 0  0.570414 0.1103435 0  0.5050935 0.1522235 0  1.32105 0.3794645 0  1.37105 0.3794645 0  1.35 0.41 0  1.333685 0.3126065 0  1.38439 0.331869 0  0.9994065 0.2494755 0  1.007568 0.29106 0  1.300315 0.3412395 0  1.2919 0.304917 0  2.13122 0.109057 0  2.094635 0.11720735 0  0.2725725 0.2024955 0  0.259684 0.2107905 0  0.2482962819455563 0.2129409872202754 0  0.2877025 0.2101195 0  2.123505 0.202068 0  2.079565 0.1721865 0  1.02826 0.03966905 0  0.9758784999999999 0.03966905 0  0.9952384999999999 0 0  1.049235 0.2965405 0  1.100945 0.3278345 0  1.0975 0.283547 0  0.5711200000000001 0.054075 0  0.5761905 0 0  0.523104 0.0562685 0  1.24959 0.2884845 0  1.20387 0.3241955 0  1.19493 0.27913 0  0.238785 0.2774815 0  0.2321125 0.311528 0  0.226118 0.3344655 0  0.2015985 0.3726739999999999 0  1.144525 0.2527845 0  1.190245 0.2170735 0  1.092815 0.2214905 0  0.2091915 0.3124105 0  0.220093 0.266387 0  0.243692 0.2543955 0  0.2353553390593274 0.2353553390593274 0  0.478422 0.113732 0  0.4611175 0.1534185 0  1.919065 0.370252 0  1.969065 0.370252 0  1.95 0.41 0  1.983635 0.312807 0  2.01457 0.352555 0  1.88907 0.316476 0  1.934895 0.277432 0  1.182685 0.1517565 0  1.097935 0.16905 0  1.128715 0.04418525 0  1.076335 0.04418525 0  1.1 0 0  1.056975 0.08385429999999999 0  1.08054 0.11787125 0  1.122445 0.13954925 0  1.16529 0.10057775 0  0.304922 0.07847404999999999 0  0.328137 0.0412364 0  0.380518 0.0412364 0  0.366667 0 0  0.388217 0.09869990000000001 0  0.426747 0.0574635 0  0.31696 0.1071899 0  0.279894 0.10319115 0  0.2725225 0.134971 0  0.2604845 0.10625515 0  0.228413 0.120237 0  0.2143565 0.129569 0  0.2390565 0.147367 0  1.30701 0.04462695 0  1.30952 0 0  1.241335 0.0563925 0  0.2357845 0.08845715 0  1.188955 0.0563925 0  1.20476 0 0  0.2066185 0.0512195 0  0.173851 0.08507819999999999 0  0.0367363 0.2360275 0  0 0.25625 0  0.264445 0.1607225 0  0.248207 0.1565175 0  0.2353553390593274 0.1646446609406726 0  0.2838545 0.1576585 0  0.130694 0.182523 0  0.1273445 0.195023 0  0.1517037180544437 0.1870590127797247 0  0.127532 0.162357 0  0.153537 0.154834 0  0.0523445 0.197523 0  0
[...]
<PointData  Vectors="u"> 
<DataArray  type="Float64"  Name="u"  NumberOfComponents="3" format="ascii">2.4800324057342044e-15 -4.3717373302491310e-15 0.0000000000000000e+00  0.0000000000000000e+00 0.0000000000000000e+00 0.0000000000000000e+00  0.0000000000000000e+00 0.0000000000000000e+00 0.0000000000000000e+00  -8.3196075570567836e-16 3.1036108817436537e-16 0.0000000000000000e+00  0.0000000000000000e+00 0.0000000000000000e+00 0.0000000000000000e+00  0.0000000000000000e+00 0.0000000000000000e+00 0.0000000000000000e+00  0.0000000000000000e+00 0.0000000000000000e+00 0.0000000000000000e+00  0.0000000000000000e+00 0.0000000000000000e+00 0.0000000000000000e+00  0.0000000000000000e+00 0.0000000000000000e+00 0.0000000000000000e+00  0.0000000000000000e+00 6.7591938849949215e-16 0.0000000000000000e+00  0.0000000000000000e+00 -1.0809370245243000e-15 0.0000000000000000e+00  0.0000000000000000e+00 0.0000000000000000e+00 0.0000000000000000e+00  0.0000000000000000e+00 3.2882274800898068e-16 0.0000000000000000e+00  0.0000000000000000e+00 0.0000000000000000e+00 0.0000000000000000e+00  0.0000000000000000e+00 -5.3583293336925267e-16 0.0000000000000000e+00  0.0000000000000000e+00 -5.8942719821799724e-16 0.0000000000000000e+00  0.0000000000000000e+00 0.0000000000000000e+00 0.0000000000000000e+00  0.0000000000000000e+00 0.0000000000000000e+00 0.0000000000000000e+00  0.0000000000000000e+00 0.0000000000000000e+00 0.0000000000000000e+00  0.0000000000000000e+00 4.0499312158031759e-16 0.0000000000000000e+00  0.0000000000000000e+00 0.0000000000000000e+00 0.0000000000000000e+00  -4.5210234333990796e-16 0.0000000000000000e+00 0.0000000000000000e+00  0.0000000000000000e+00 0.0000000000000000e+00 0.0000000000000000e+00  0.0000000000000000e+00 0.0000000000000000e+00 0.0000000000000000e+00  -9.5599714343904846e-16 3.6345775149596669e-16 0.0000000000000000e+00  0.0000000000000000e+00 1.5252075721153761e-15 0.0000000000000000e+00  0.0000000000000000e+00 8.8930998452135317e-16 0.0000000000000000e+00  0.0000000000000000e+00 -3.5919241202916318e-16 0.0000000000000000e+00  1.1250000003586698e+00 3.0445205945934864e-10 0.0000000000000000e+00  1.5000000000001534e+00 4.9424025161682430e-10 0.0000000000000000e+00  1.1249999996415565e+00 3.0401414791008129e-10 0.0000000000000000e+00  0.0000000000000000e+00 0.0000000000000000e+00 0.0000000000000000e+00  0.0000000000000000e+00 0.0000000000000000e+00 0.0000000000000000e+00  0.0000000000000000e+00 -5.9366876977028042e-16 0.0000000000000000e+00  0.0000000000000000e+00 0.0000000000000000e+00 0.0000000000000000e+00  0.0000000000000000e+00 0.0000000000000000e+00 0.0000000000000000e+00  0.0000000000000000e+00 0.0000000000000000e+00 0.0000000000000000e+00  0.0000000000000000e+00 0.0000000000000000e+00 0.0000000000000000e+00  0.0000000000000000e+00 0.0000000000000000e+00 0.0000000000000000e+00  0.0000000000000000e+00 4.7771639758404776e-16 0.0000000000000000e+00  0.0000000000000000e+00 -4.4039220642909474e-16 0.0000000000000000e+00  0.0000000000000000e+00 0.0000000000000000e+00 0.0000000000000000e+00  0.0000000000000000e+00 5.0685886526919368e-16 0.0000000000000000e+00  0.0000000000000000e+00 0.0000000000000000e+00 0.0000000000000000e+00  0.0000000000000000e+00 -4.0007851093410509e-16 0.0000000000000000e+00  0.0000000000000000e+00 1.0144346233137713e-15 0.0000000000000000e+00  0.0000000000000000e+00 0.0000000000000000e+00 0.0000000000000000e+00  0.0000000000000000e+00 0.0000000000000000e+00 0.0000000000000000e+00  0.0000000000000000e+00 0.0000000000000000e+00 0.0000000000000000e+00  0.0000000000000000e+00 -9.8152438356926607e-16 0.0000000000000000e+00  0.0000000000000000e+00 0.0000000000000000e+00 0.0000000000000000e+00  0.0000000000000000e+00 0.0000000000000000e+00 0.0000000000000000e+00  1.1249999999999998e+00 0.0000000000000000e+00 0.0000000000000000e+00  1.4999999999999956e+00 0.0000000000000000e+00 0.0000000000000000e+00  1.1250000000000009e+00 -4.2793991506143262e-16 0.0000000000000000e+00  0.0000000000000000e+00 0.0000000000000000e+00 0.0000000000000000e+00  2.0825452746847396e-15 6.9418165251524323e-16 0.0000000000000000e+00  -8.8433603422957627e-16 0.0000000000000000e+00 0.0000000000000000e+00  0.0000000000000000e+00 0.0000000000000000e+00 0.0000000000000000e+00  -3.5171723341779399e-16 0.0000000000000000e+00 0.0000000000000000e+00  6.3421638564163041e-16 4.6535041331137843e-16 0.0000000000000000e+00  0.0000000000000000e+00 0.0000000000000000e+00 0.0000000000000000e+00  0.0000000000000000e+00 0.0000000000000000e+00 0.0000000000000000e+00  1.2548606921945236e+00 -3.2689324320986130e-01 0.0000000000000000e+00  1.4202797593574417e+00 4.9573459881169239e-05 0.0000000000000000e+00  1.4473151223617395e+00 5.3836656974018419e-06 0.0000000000000000e+00  1.4599981053196465e+00 7.7347287972880720e-05 0.0000000000000000e+00  1.4889375276934018e+00 1.9661149560075299e-06 0.0000000000000000e+00  1.4928171889371813e+00 9.8096205817344834e-05 0.0000000000000000e+00  1.4998220107503795e+00 4.0586723030555204e-08 0.0000000000000000e+00  1.5000918780917050e+00 -8.2901922896186174e-05 0.0000000000000000e+00  1.4999960166094268e+00 -2.9897962398518672e-07 0.0000000000000000e+00  1.4999141029955676e+00 -1.1691220603005580e-03 0.0000000000000000e+00  1.4999999142679956e+00 -1.7361491640383439e-07 0.0000000000000000e+00  1.4591302847032250e+00 -8.1711706811463079e-03 0.0000000000000000e+00  1.4923530657213353e+00 -4.9490074264336158e-08 0.0000000000000000e+00  1.4889776195595927e+00 -1.1724472053894977e-08 0.0000000000000000e+00  1.4953954493972257e+00 7.5932883257154174e-10 0.0000000000000000e+00  1.4284606167318925e+00 -4.2928074426772628e-01 0.0000000000000000e+00  1.7553809373155400e+00 -2.7565891591336572e-01 0.0000000000000000e+00  1.4163696358125990e+00 5.8997685534952032e-10 0.0000000000000000e+00  9.7468252404216371e-01 3.7028894581727189e-10 0.0000000000000000e+00  1.2752398474683306e+00 5.6411609630103376e-01 0.0000000000000000e+00  1.5559198594411379e+00 -2.9608117747722101e-01 0.0000000000000000e+00  1.0826462907702208e+00 2.9463743433238404e-01 0.0000000000000000e+00  8.2734363385443122e-01 -4.1541083129983059e-01 0.0000000000000000e+00  1.2183947062895963e+00 -2.3618004436806863e-02 0.0000000000000000e+00  1.1314392498803052e+00 -6.1008022195769696e-01 0.0000000000000000e+00  3.4049031163018423e-01 2.2149752912670745e-01 0.0000000000000000e+00  9.3398474651451724e-01 -1.3844027130629388e-08 0.0000000000000000e+00  1.1610548733886528e+00 -5.5588668419400101e-09 0.0000000000000000e+00  1.0771906651057501e+00 -5.6460715456433051e-08 0.0000000000000000e+00  1.1629146198014979e+00 -2.1446294209814267e-03 0.0000000000000000e+00  1.1175883381092768e+00 -1.4133713011084674e-07 0.0000000000000000e+00  1.1346720564142851e+00 -7.8868295728504040e-05 0.0000000000000000e+00  1.0696131961119855e+00 -1.4522564991712569e-07 0.0000000000000000e+00  1.1871708999033905e+00 9.7861802798249132e-05 0.0000000000000000e+00  1.1964831765823261e+00 4.2629583225377150e-06 0.0000000000000000e+00  1.3814888559831684e+00 4.1361766728278638e-05 0.0000000000000000e+00  9.4340109501269809e-01 4.0727247333318572e-05 0.0000000000000000e+00  1.3186291130486374e+00 8.3105603794626122e-07 0.0000000000000000e+00  1.2101792219881937e+00 5.4896484048547032e-10 0.0000000000000000e+00  1.2389894989918606e+00 -2.8866851177740783e-09 0.0000000000000000e+00  1.1419408023890272e+00 -1.1027663609537056e-08 0.0000000000000000e+00  1.0218142176587803e+00 1.1261359447516576e-07 0.0000000000000000e+00  1.1453787198126082e+00 -4.2409701113502998e-08 0.0000000000000000e+00  1.0725889395433785e+00 4.6600831008326552e-05 0.0000000000000000e+00  1.1280885837617580e+00 -1.1205822522219186e-07 0.0000000000000000e+00  1.1638617932174584e+00 -6.5330246880380147e-04 0.0000000000000000e+00  1.1151380937410884e+00 -1.8159302147072260e-07 0.0000000000000000e+00  1.1377617789754022e+00 -4.6537600488462454e-04 0.0000000000000000e+00  1.1237246646335459e+00 -3.5181788228664774e-05 0.0000000000000000e+00  1.1486018353058594e+00 1.6499052601972396e-10 0.0000000000000000e+00  1.3678890437842597e+00 -1.0938148082848767e-01 0.0000000000000000e+00  6.0204536746429893e-01 5.4901773448955982e-01 0.0000000000000000e+00  1.0693518129229724e+00 9.1116695238319761e-06 0.0000000000000000e+00  1.0377299933247410e+00 -1.1485000061004844e-01 0.0000000000000000e+00  1.4973434016041927e+00 -6.1090330594537109e-03 0.0000000000000000e+00  1.3948795592437366e+00 5.6261364625805764e-10 0.0000000000000000e+00  1.4866219058214833e+00 -1.2470060128827451e-09 0.0000000000000000e+00  6.3096518260424617e-01 -1.0440142693104372e-01 0.0000000000000000e+00  1.5427949531873304e+00 3.3019657988752610e-01 0.0000000000000000e+00  3.1529515353238347e-01 -2.9258911307430541e-01 0.0000000000000000e+00  1.2047653895411679e+00 7.8246432603597121e-02 0.0000000000000000e+00  9.3642689653730149e-01 2.5976358355527994e-05 0.0000000000000000e+00  1.4378957969998352e+00 9.6723177624659991e-05 0.0000000000000000e+00  9.1016795730476685e-01 1.2704834436544265e-06 0.0000000000000000e+00  8.4145833045332430e-01 1.5625699454627017e-05 0.0000000000000000e+00  8.2402955358126251e-01 1.9800661829143816e-10 0.0000000000000000e+00  1.1912467392957549e+00 1.0478021354069401e-02 0.0000000000000000e+00  7.6059923216562031e-01 8.0981290173772841e-08 0.0000000000000000e+00  1.7045100088468925e+00 -1.9357225915804802e-01 0.0000000000000000e+00  1.8947197891666534e+00 -1.1319496357166503e-02 0.0000000000000000e+00  1.4927321754152625e+00 2.1573651248101381e-05 0.0000000000000000e+00  9.3778986123840358e-01 -9.8322709460028248e-11 0.0000000000000000e+00  1.0145057617267537e+00 1.3250822119475143e-05 0.0000000000000000e+00  1.1809649714456474e+00 2.5566342096158023e-01 0.0000000000000000e+00  1.0044026830762411e+00 5.5268503926961510e-01 0.0000000000000000e+00  1.1462825894281623e+00 5.4741290031274570e-01 0.0000000000000000e+00  1.7655250943039300e+00 3.6691325333706296e-02 0.0000000000000000e+00  1.0985146629898075e+00 -5.7249215488845662e-01 0.0000000000000000e+00  1.7766700342072566e+00 4.6629208097233504e-01 0.0000000000000000e+00  1.1100993067705525e+00 1.1006706545251435e-01 0.0000000000000000e+00  1.2391836847531708e+00 -4.2157179840644349e-01 0.0000000000000000e+00  1.3646255540451875e+00 2.3101327416025649e-02 0.0000000000000000e+00  7.3382301072669043e-01 1.6870571145613012e-02 0.0000000000000000e+00  7.7348803404955879e-01 1.9714067212248583e-10 0.0000000000000000e+00  1.2967966769061188e+00 4.1861875427252038e-10 0.0000000000000000e+00  1.4790924088861346e+00 5.2994497903966025e-10 0.0000000000000000e+00  1.4062499997442481e+00 4.4224160648677498e-10 0.0000000000000000e+00  5.4983050945774714e-01 1.1460236703151139e-10 0.0000000000000000e+00  5.4983050972887693e-01 1.3533817668297217e-10 0.0000000000000000e+00  0.0000000000000000e+00 -3.1147660522475915e-16 0.0000000000000000e+00  1.1565712130439465e+00 -4.9531051743375347e-02 0.0000000000000000e+00  9.3264790090951555e-01 -1.0776290028287840e-01 0.0000000000000000e+00  0.0000000000000000e+00 2.1573556556930344e-15 0.0000000000000000e+00  7.4038372794145013e-01 1.1424619519878645e-01 0.0000000000000000e+00  5.2793115857299777e-01 5.4630459336262982e-02 0.0000000000000000e+00  0.0000000000000000e+00 -8.7703502047060095e-16 0.0000000000000000e+00  1.0639878675132273e+00 2.3038609206768967e-01 0.0000000000000000e+00  6.5625000000000033e-01 0.0000000000000000e+00 0.0000000000000000e+00  1.6005647988714269e+00 -4.1479732251889045e-01 0.0000000000000000e+00  1.0904857365857841e+00 -1.0842291886695823e-01 0.0000000000000000e+00  1.1407824711622570e+00 -1.7077003573211921e-01 0.0000000000000000e+00  1.3080067230813102e+00 4.9473884901223059e-01 0.0000000000000000e+00  1.2801132291131039e+00 3.5771152996967531e-01 0.0000000000000000e+00  1.2507413115379578e+00 -5.3230289595410241e-01 0.0000000000000000e+00  1.1057167523360398e+00 -3.9277302329711355e-01 0.0000000000000000e+00  1.3244463924250753e+00 -4.1803923207772692e-01 0.0000000000000000e+00  1.6770202692253309e+00 -4.9625418233436513e-01 0.0000000000000000e+00  1.4143607223086625e+00 -5.7576229195866147e-01 0.0000000000000000e+00  1.3287947176640156e+00 6.2964876097274708e-10 0.0000000000000000e+00  1.4446590342073093e+00 7.1815594503878263e-10 0.0000000000000000e+00  1.4877530020799938e+00 7.6398536615360293e-10 0.0000000000000000e+00  1.0659981413484558e+00 4.2900604284565443e-10 0.0000000000000000e+00  6.7414314272563058e-01 1.5265181301533698e-10 0.0000000000000000e+00  1.3908869454951795e+00 5.1446316748454185e-10 0.0000000000000000e+00  1.3429285860591023e+00 6.6537279112803124e-10 0.0000000000000000e+00  1.3536609866667282e+00 -6.1411434565665682e-02 0.0000000000000000e+00  1.4321045316112349e+00 -3.9317468159418362e-02 0.0000000000000000e+00  1.4360336979265256e+00 -3.0529928750176422e-02 0.0000000000000000e+00  1.4737198898879054e+00 5.2247751252686380e-10 0.0000000000000000e+00  1.2806973291703521e+00 4.0640163712430317e-10 0.0000000000000000e+00  1.4062500002561555e+00 4.4236961312625531e-10 0.0000000000000000e+00  1.4609486760331589e+00 -2.5492431198647837e-09 0.0000000000000000e+00  1.4999715047450817e+00 -4.8463069551260385e-09 0.0000000000000000e+00  1.4051731435082873e+00 -6.6237642140507831e-09 0.0000000000000000e+00  1.3782500699165192e+00 -3.5349420825214863e-09 0.0000000000000000e+00  1.4430694640351087e+00 -1.0264110346729941e-08 0.0000000000000000e+00  1.4160896535310141e+00 -2.1241413972365943e-03 0.0000000000000000e+00  1.4997532286721691e+00 -2.8477496499178302e-03 0.0000000000000000e+00  1.4110197835203306e+00 -1.5911943411741646e-03 0.0000000000000000e+00  1.2401610497946467e+00 -2.4622641246513516e-01 0.0000000000000000e+00  1.2786491590821456e+00 -2.3890392963713822e-01 0.0000000000000000e+00  4.0776431533464863e-01 3.6472438842091459e-01 0.0000000000000000e+00  3.1663635266838658e-01 3.7842424784139306e-01 0.0000000000000000e+00  0.0000000000000000e+00 0.0000000000000000e+00 0.0000000000000000e+00  1.7806293279052526e-01 2.3176072608510223e-01 0.0000000000000000e+00  1.1263573623206038e-01 9.3834553130228385e-02 0.0000000000000000e+00  0.0000000000000000e+00 0.0000000000000000e+00 0.0000000000000000e+00  9.0800473052764163e-01 -5.6488500142018139e-01 0.0000000000000000e+00  1.4259431893095262e+00 5.8437600049676013e-05 0.0000000000000000e+00  1.4990427727821609e+00 5.2257752868417007e-05 0.0000000000000000e+00  1.4983066448317690e+00 6.9203631949168418e-05 0.0000000000000000e+00  1.3923825423230685e+00 3.3627721276718873e-06 0.0000000000000000e+00  1.4741770123922120e+00 6.3304599379306152e-06 0.0000000000000000e+00  1.4961340489252919e+00 3.5493101713997892e-06 0.0000000000000000e+00  1.1140887982893712e+00 1.1486939809906646e-06 0.0000000000000000e+00  1.3413219224289290e+00 7.8808433290144215e-07 0.0000000000000000e+00  6.1779659449140600e-01 1.5842051098202338e-05 0.0000000000000000e+00  6.1782353112363797e-01 1.2056088968317105e-05 0.0000000000000000e+00  0.0000000000000000e+00 -1.7506653134671598e-15 0.0000000000000000e+00  1.3636139341412348e+00 7.5470602278499691e-05 0.0000000000000000e+00  1.3177737701046131e+00 7.0762927262730423e-05 0.0000000000000000e+00  1.4797173921180069e+00 9.7170033103571296e-05 0.0000000000000000e+00  1.0985749790985428e+00 2.9743404238298654e-05 0.0000000000000000e+00  1.3781288460717451e+00 3.7461732943918122e-05 0.0000000000000000e+00  6.5530370708809238e-01 -5.0389404803487883e-06 0.0000000000000000e+00  5.8199191136993400e-01 -5.0386151793366671e-08 0.0000000000000000e+00  5.8199187023600363e-01 4.0305624807207784e-09 0.0000000000000000e+00  0.0000000000000000e+00 0.0000000000000000e+00 0.0000000000000000e+00  1.3757962768206382e+00 1.5483136996827630e-07 0.0000000000000000e+00  1.4964882574713014e+00 6.8254189409670306e-07 0.0000000000000000e+00  1.0697412090023628e+00 -1.2967350953404103e-07 0.0000000000000000e+00  1.3996017315034999e+00 -2.1832381518601437e-07 0.0000000000000000e+00  6.4888551803037431e-01 -6.7415379425212389e-08 0.0000000000000000e+00  6.5525057996986003e-01 -5.7479155010872427e-05 0.0000000000000000e+00  0.0000000000000000e+00 -1.6852415314919242e-15 0.0000000000000000e+00  1.4054536391845169e+00 -7.4894394092126477e-05 0.0000000000000000e+00  1.4981743927206310e+00 5.2715286231607188e-05 0.0000000000000000e+00  1.1308403075715674e+00 -1.9131085811330314e-04 0.0000000000000000e+00  1.4090181234329249e+00 -3.4624793311416503e-04 0.0000000000000000e+00  6.6585326336441586e-01 -1.5110591177787852e-04 0.0000000000000000e+00  6.4888562579922482e-01 -5.4178807243052570e-08 0.0000000000000000e+00  8.1080969787564295e-16 0.0000000000000000e+00 0.0000000000000000e+00  1.4031644487815869e+00 -2.6965138063789904e-07 0.0000000000000000e+00  1.4999411938698883e+00 -2.6083255257936723e-07 0.0000000000000000e+00  1.1216410523248685e+00 -1.5390033072292282e-07 0.0000000000000000e+00  1.4064125898756161e+00 -2.2821747501656800e-07 0.0000000000000000e+00  6.5856961840052519e-01 -3.9008178921597256e-08 0.0000000000000000e+00  1.3930664991871293e+00 2.8185950798586653e-10 0.0000000000000000e+00  1.4994286257220824e+00 2.8477428409557980e-10 0.0000000000000000e+00  6.8374664677589037e-01 -2.2262742460524163e-09 0.0000000000000000e+00  6.8374664411820918e-01 -8.0650692949884995e-10 0.0000000000000000e+00  0.0000000000000000e+00 0.0000000000000000e+00 0.0000000000000000e+00  1.3878966715646124e+00 -2.0551143888326772e-08 0.0000000000000000e+00  1.4999230804265711e+00 -2.5924934774386109e-08 0.0000000000000000e+00  5.2278400207544684e-01 -5.2928577852844577e-09 0.0000000000000000e+00  5.2278399277443000e-01 -2.6317934759949001e-09 0.0000000000000000e+00  0.0000000000000000e+00 0.0000000000000000e+00 0.0000000000000000e+00  1.0547575567427669e+00 -9.4572351265095310e-09 0.0000000000000000e+00  1.3236896162256593e+00 -3.3952371727125614e-08 0.0000000000000000e+00  6.2110991352364486e-01 -2.2577625848933046e-08 0.0000000000000000e+00  6.2110988003613588e-01 -1.3463563921898302e-08 0.0000000000000000e+00  0.0000000000000000e+00 0.0000000000000000e+00 0.0000000000000000e+00  1.0081938986393315e+00 -2.9468102069909198e-08 0.0000000000000000e+00  1.3639553392732016e+00 -6.2994516339146083e-08 0.0000000000000000e+00  1.3943928711109193e+00 -1.2238856217003998e-07 0.0000000000000000e+00  1.4981010497706608e+00 -9.9082112020848137e-08 0.0000000000000000e+00  6.8551321240214325e-01 -1.1241636385471330e-03 0.0000000000000000e+00  6.8431319191852280e-01 -3.1817674579127486e-04 0.0000000000000000e+00  0.0000000000000000e+00 6.1695378643075239e-16 0.0000000000000000e+00  1.4141438848102494e+00 -5.1942958278260142e-03 0.0000000000000000e+00  1.4206131528165937e+00 -1.8355772276937312e-03 0.0000000000000000e+00  6.5070943757013744e-01 -5.5249534250355482e-08 0.0000000000000000e+00  6.5070935677135733e-01 -3.9290109426445224e-08 0.0000000000000000e+00  0.0000000000000000e+00 0.0000000000000000e+00 0.0000000000000000e+00  1.0976429885945211e+00 -9.4030960912634329e-08 0.0000000000000000e+00  1.4044876346266353e+00 -1.8659976168095670e-07 0.0000000000000000e+00  1.4050131869716800e+00 -2.4835209214649185e-07 0.0000000000000000e+00  1.4999986904236295e+00 -2.4529359173755955e-07 0.0000000000000000e+00  6.6338316242621531e-01 -2.9314705066205433e-05 0.0000000000000000e+00  6.6335333368002714e-01 3.3439153890620315e-05 0.0000000000000000e+00  0.0000000000000000e+00 0.0000000000000000e+00 0.0000000000000000e+00  1.1485914949864318e+00 -5.9648852498356752e-04 0.0000000000000000e+00  1.4137371364551554e+00 -5.7067391684594297e-04 0.0000000000000000e+00  1.4092862150446299e+00 -1.0913998259344876e-04 0.0000000000000000e+00  1.5000803755779943e+00 -4.4139682964095510e-04 0.0000000000000000e+00  6.1566336407465749e-01 -5.5738358004387565e-08 0.0000000000000000e+00  6.1566326238477587e-01 -6.2797104394742324e-08 0.0000000000000000e+00  0.0000000000000000e+00 0.0000000000000000e+00 0.0000000000000000e+00  1.0939550465499048e+00 -1.7434861964285596e-07 0.0000000000000000e+00  1.3930569828487467e+00 -2.6