<?xml version="1.0"?>
<VTKFile type="UnstructuredGrid"  version="0.1"  >
<UnstructuredGrid>
<Piece  NumberOfPoints="525" NumberOfCells="924">
<Points>
<DataArray  type="Float64"  NumberOfComponents="3"  format="ascii">0 0 0  2.2 0 0  2.2 0.41 0  0 0.41 0  0.15 0.2 0  0.25 0.2 0  0.2 0.15 0  0.2 0.25 0  0.104762 0 0  0.209524 0 0  0.314286 0 0  0.419048 0 0  0.52381 0 0  0.628571 0 0  0.733333 0 0  0.838095 0 0  0.9428569999999999 0 0  1.04762 0 0  1.15238 0 0  1.25714 0 0  1.3619 0 0  1.46667 0 0  1.57143 0 0  1.67619 0 0  1.78095 0 0  1.88571 0 0  1.99048 0 0  2.09524 0 0  2.2 0.1025 0  2.2 0.205 0  2.2 0.3075 0  2.1 0.41 0  2 0.41 0  1.9 0.41 0  1.8 0.41 0  1.7 0.41 0  1.6 0.41 0  1.5 0.41 0  1.4 0.41 0  1.3 0.41 0  1.2 0.41 0  1.1 0.41 0  1 0.41 0  0.9 0.41 0  0.8 0.41 0  0.7 0.41 0  0.6 0.41 0  0.5 0.41 0  0.4 0.41 0  0.3 0.41 0  0.2 0.41 0  0.1 0.41 0  0 0.3075 0  0 0.205 0  0 0.1025 0  0.1566987973585577 0.2250001169958213 0  0.1749998830041787 0.2433012026414423 0  0.2250001169958213 0.2433012026414423 0  0.2433012026414423 0.2250001169958213 0  0.2433012026414423 0.1749998830041787 0  0.2250001169958213 0.1566987973585577 0  0.1749998830041787 0.1566987973585577 0  0.1566987973585577 0.1749998830041787 0  0.352033 0.262216 0  1.04579 0.252253 0  1.24065 0.243419 0  0.985775 0.171509 0  1.30324 0.187395 0  0.890988 0.190768 0  1.39085 0.202767 0  0.801464 0.204685 0  1.49904 0.204666 0  0.704267 0.202289 0  1.60238 0.204951 0  0.487789 0.19191 0  1.72935 0.219637 0  1.83335 0.187427 0  2.03359 0.193642 0  0.314663 0.307348 0  0.249039 0.333583 0  2.12147 0.253405 0  2.06373 0.0836837 0  0.0734726 0.267055 0  0.143989 0.0677174 0  0.0613613 0.33781 0  0.299628 0.236829 0  0.527114 0.295386 0  0.262384 0.26549 0  0.275777 0.18341 0  1.74578 0.330928 0  1.84001 0.302448 0  1.64998 0.313838 0  0.648421 0.302367 0  1.54544 0.308508 0  0.755686 0.306156 0  1.42668 0.314809 0  0.870524 0.298596 0  1.22553 0.112785 0  1.05603 0.147372 0  0.969346 0.329867 0  1.32527 0.276284 0  2.02914 0.29511 0  1.88168 0.119486 0  1.79545 0.104842 0  1.35688 0.0892539 0  1.69041 0.105324 0  0.914199 0.09555660000000001 0  1.58234 0.102923 0  0.61843 0.10815 0  1.47999 0.101161 0  0.725217 0.104273 0  0.821727 0.102306 0  1.96725 0.105778 0  0.418624 0.241547 0  0.135226 0.239087 0  1.14921 0.314841 0  0.404508 0.333259 0  0.590155 0.206269 0  2.12554 0.150731 0  1.93166 0.22436 0  0.104689 0.190046 0  0.267856 0.07447529999999999 0  0.269368 0.221581 0  0.434446 0.114927 0  1.0089 0.07933809999999999 0  0.953023 0.246698 0  1.25853 0.33355 0  1.05268 0.340828 0  2.1369 0.067383 0  0.522398 0.112537 0  1.3421 0.348929 0  0.215186 0.289473 0  0.203197 0.335348 0  1.13984 0.190728 0  1.93813 0.330504 0  1.10505 0.0883705 0  0.341988 0.0824728 0  0.253113 0.138035 0  0.291932 0.131907 0  0.203713 0.102439 0  0.150375 0.134668 0  0.151494 0.309119 0  0.354384 0.17896 0  0.06853670000000001 0.100776 0  0.424128 0.180088 0  0.474925 0.0568661 0  2.10843 0.347669 0  2.160735 0.2804525 0  2.160735 0.2292025 0  2.2 0.25625 0  2.079485 0.04184185 0  2.027105 0.04184185 0  2.04286 0 0  0.1767565 0.0338587 0  0.1243755 0.0338587 0  0.157143 0 0  0.08068065000000001 0.373905 0  0.03068065 0.373905 0  0.05 0.41 0  0.03068065 0.322655 0  0 0.35875 0  0.281851 0.3204655 0  0.2745195 0.3717915 0  0.3073315 0.358674 0  0.06741695 0.3024325 0  0.0367363 0.2872775 0  0.3071455 0.2720885 0  0.3258305 0.2495225 0  0.333348 0.284782 0  0.2557115 0.2995365 0  0.2885235 0.286419 0  2.075305 0.2742575 0  2.031365 0.244376 0  2.07753 0.2235235 0  2.01549 0.09473085000000001 0  1.978865 0.052889 0  2.00042 0.14971 0  2.04866 0.13866285 0  0.472869 0.2684665 0  0.4532065 0.2167285 0  0.5074514999999999 0.243648 0  2.16277 0.1778655 0  2.16277 0.1266155 0  2.2 0.15375 0  1.90667 0.171923 0  1.882505 0.2058935 0  1.857515 0.1534565 0  1.885835 0.263404 0  1.83668 0.2449375 0  0.6042925 0.1572095 0  0.647211 0.204279 0  0.6613485 0.1552195 0  0.3595855 0.3203035 0  0.3782705 0.2977375 0  0.155113 0.241194 0  0.1459625 0.2320435 0  0.1646446609406726 0.2353553390593274 0  0.259539 0.179205 0  0.2628885 0.191705 0  0.2482962819455563 0.1870590127797247 0  0.281006 0.2511595 0  1.0209025 0.1594405 0  1.05091 0.1998125 0  1.0157825 0.211881 0  1.264385 0.15009 0  1.23309 0.178102 0  1.271945 0.215407 0  1.291205 0.10101945 0  1.33006 0.13832445 0  0.928528 0.0477783 0  0.876147 0.0477783 0  0.890476 0 0  0.9025935 0.1431623 0  0.9499869999999999 0.1335328 0  0.9383815 0.1811385 0  0.867963 0.0989313 0  0.8563575 0.146537 0  0.8299110000000001 0.051153 0  1.411775 0.04462695 0  1.35939 0.04462695 0  1.414285 0 0  1.373865 0.14601045 0  1.347045 0.195081 0  1.418435 0.09520745 0  1.43542 0.151964 0  1.47333 0.0505805 0  0.7775300000000001 0.051153 0  0.785714 0 0  0.8115954999999999 0.1534955 0  0.8462259999999999 0.1977265 0  0.7734719999999999 0.1032895 0  0.7633405 0.154479 0  0.729275 0.0521365 0  1.52571 0.0505805 0  1.51905 0 0  1.489515 0.1529135 0  1.444945 0.2037165 0  1.531165 0.102042 0  1.54069 0.1537945 0  1.576885 0.0514615 0  1.9804 0.259735 0  1.982625 0.209001 0  1.820005 0.356224 0  1.870005 0.356224 0  1.85 0.41 0  1.78468 0.2610425 0  1.78135 0.203532 0  1.72289 0.370464 0  1.77289 0.370464 0  1.75 0.41 0  1.792895 0.316688 0  1.737565 0.2752825 0  1.62499 0.361919 0  1.67499 0.361919 0  1.65 0.41 0  1.69788 0.322383 0  1.689665 0.2667375 0  1.62618 0.2593945 0  1.665865 0.212294 0  0.6242105 0.3561835 0  0.6742105 0.3561835 0  0.6499999999999999 0.41 0  0.6192880000000001 0.254318 0  0.6763440000000001 0.252328 0  1.52272 0.359254 0  1.57272 0.359254 0  1.55 0.41 0  1.59771 0.311173 0  1.57391 0.2567295 0  1.52224 0.256587 0  1.55071 0.2048085 0  0.727843 0.358078 0  0.7778430000000001 0.358078 0  0.75 0.41 0  0.7020535 0.3042615 0  0.7299765 0.2542225 0  0.778575 0.2554205 0  0.7528655 0.203487 0  1.41334 0.3624045 0  1.46334 0.3624045 0  1.45 0.41 0  1.48606 0.3116585 0  1.46286 0.2597375 0  1.408765 0.258788 0  0.8352619999999999 0.354298 0  0.885262 0.354298 0  0.8500000000000001 0.41 0  0.813105 0.302376 0  0.8359939999999999 0.2516405 0  0.880756 0.244682 0  0.9346730000000001 0.3699335 0  0.984673 0.3699335 0  0.95 0.41 0  0.9199349999999999 0.3142315 0  0.676894 0.0521365 0  0.680952 0 0  0.714742 0.153281 0  0.6718235 0.1062115 0  0.6235005 0.054075 0  1.629265 0.0514615 0  1.62381 0 0  1.59236 0.153937 0  1.636375 0.1041235 0  1.646395 0.1551375 0  1.6833 0.052662 0  1.73568 0.052662 0  1.72857 0 0  1.70988 0.1624805 0  1.74293 0.105083 0  1.7624 0.1622395 0  1.7882 0.052421 0  1.84058 0.052421 0  1.83333 0 0  1.8144 0.1461345 0  1.838565 0.112164 0  1.883695 0.059743 0  1.124605 0.3624205 0  1.174605 0.3624205 0  1.15 0.41 0  1.314255 0.2318395 0  1.28296 0.2598515 0  1.35806 0.2395255 0  1.375975 0.2955465 0  1.92648 0.052889 0  1.938095 0 0  1.924465 0.112632 0  1.949455 0.165069 0  0.352254 0.3716295 0  0.402254 0.3716295 0  0.35 0.41 0  0.513557 0.352693 0  0.563557 0.352693 0  0.55 0.41 0  0.5877675 0.2988765 0  0.5586344999999999 0.2508275 0  0.538972 0.1990895 0  0.452254 0.3716295 0  0.45 0.41 0  0.465811 0.3143225 0  0.411566 0.287403 0  0.3853285 0.2518815 0  0.1199575 0.2145665 0  0.0890808 0.2285505 0  0.1043493 0.253071 0  0.2245195 0.3717915 0  0.25 0.41 0  0.291071 0.03723765 0  0.23869 0.03723765 0  0.261905 0 0  0.265876 0.2435355 0  0.2563345 0.2232905 0  0.2528425 0.245245 0  0.284498 0.229205 0  1.032465 0.11335505 0  0.9973375 0.12542355 0  0.9615494999999999 0.08744735000000001 0  0.9220055 0.218733 0  0.9693989999999999 0.2091035 0  0.9611845 0.2882825 0  0.9117735 0.272647 0  1.229265 0.371775 0  1.279265 0.371775 0  1.25 0.41 0  1.02634 0.375414 0  1.07634 0.375414 0  1.05 0.41 0  1.011013 0.3353475 0  2.11607 0.0336915 0  2.16845 0.0336915 0  2.14762 0 0  2.16845 0.0849415 0  2.2 0.05125 0  2.100315 0.07553335 0  0.5562765000000001 0.159403 0  0.570414 0.1103435 0  0.5050935 0.1522235 0  1.32105 0.3794645 0  1.37105 0.3794645 0  1.35 0.41 0  1.333685 0.3126065 0  1.38439 0.331869 0  0.9994065 0.2494755 0  1.007568 0.29106 0  1.300315 0.3412395 0  1.2919 0.304917 0  2.13122 0.109057 0  2.094635 0.11720735 0  0.2725725 0.2024955 0  0.259684 0.2107905 0  0.2482962819455563 0.2129409872202754 0  0.2877025 0.2101195 0  2.123505 0.202068 0  2.079565 0.1721865 0  1.02826 0.03966905 0  0.9758784999999999 0.03966905 0  0.9952384999999999 0 0  1.049235 0.2965405 0  1.100945 0.3278345 0  1.0975 0.283547 0  0.5711200000000001 0.054075 0  0.5761905 0 0  0.523104 0.0562685 0  1.24959 0.2884845 0  1.20387 0.3241955 0  1.19493 0.27913 0  0.238785 0.2774815 0  0.2321125 0.311528 0  0.226118 0.3344655 0  0.2015985 0.3726739999999999 0  1.144525 0.2527845 0  1.190245 0.2170735 0  1.092815 0.2214905 0  0.2091915 0.3124105 0  0.220093 0.266387 0  0.243692 0.2543955 0  0.2353553390593274 0.2353553390593274 0  0.478422 0.113732 0  0.4611175 0.1534185 0  1.919065 0.370252 0  1.969065 0.370252 0  1.95 0.41 0  1.983635 0.312807 0  2.01457 0.352555 0  1.88907 0.316476 0  1.934895 0.277432 0  1.182685 0.1517565 0  1.097935 0.16905 0  1.128715 0.04418525 0  1.076335 0.04418525 0  1.1 0 0  1.056975 0.08385429999999999 0  1.08054 0.11787125 0  1.122445 0.13954925 0  1.16529 0.10057775 0  0.304922 0.07847404999999999 0  0.328137 0.0412364 0  0.380518 0.0412364 0  0.366667 0 0  0.388217 0.09869990000000001 0  0.426747 0.0574635 0  0.31696 0.1071899 0  0.279894 0.10319115 0  0.2725225 0.134971 0  0.2604845 0.10625515 0  0.228413 0.120237 0  0.2143565 0.129569 0  0.2390565 0.147367 0  1.30701 0.04462695 0  1.30952 0 0  1.241335 0.0563925 0  0.2357845 0.08845715 0  1.188955 0.0563925 0  1.20476 0 0  0.2066185 0.0512195 0  0.173851 0.08507819999999999 0  0.0367363 0.2360275 0  0 0.25625 0  0.264445 0.1607225 0  0.248207 0.1565175 0  0.2353553390593274 0.1646446609406726 0  0.2838545 0.1576585 0  0.130694 0.182523 0  0.1273445 0.195023 0  0.1517037180544437 0.1870590127797247 0  0.127532 0.162357 0  0.153537 0.154834 0  0.0523445 0.197523 0  0
[...]
<PointData  Vectors="u"> 
<DataArray  type="Float64"  Name="u"  NumberOfComponents="3" format="ascii">3.4648124070424784e-15 -5.5207251805649721e-15 0.0000000000000000e+00  0.0000000000000000e+00 0.0000000000000000e+00 0.0000000000000000e+00  0.0000000000000000e+00 0.0000000000000000e+00 0.0000000000000000e+00  0.0000000000000000e+00 0.0000000000000000e+00 0.0000000000000000e+00  0.0000000000000000e+00 0.0000000000000000e+00 0.0000000000000000e+00  0.0000000000000000e+00 0.0000000000000000e+00 0.0000000000000000e+00  0.0000000000000000e+00 0.0000000000000000e+00 0.0000000000000000e+00  0.0000000000000000e+00 0.0000000000000000e+00 0.0000000000000000e+00  0.0000000000000000e+00 0.0000000000000000e+00 0.0000000000000000e+00  0.0000000000000000e+00 1.1756182626839137e-15 0.0000000000000000e+00  0.0000000000000000e+00 1.1818215970875713e-15 0.0000000000000000e+00  0.0000000000000000e+00 3.6557391739973664e-16 0.0000000000000000e+00  0.0000000000000000e+00 -8.5824721759252106e-16 0.0000000000000000e+00  0.0000000000000000e+00 -1.6499766613811105e-15 0.0000000000000000e+00  0.0000000000000000e+00 0.0000000000000000e+00 0.0000000000000000e+00  0.0000000000000000e+00 -4.5314663742225361e-16 0.0000000000000000e+00  0.0000000000000000e+00 5.0058107023881191e-16 0.0000000000000000e+00  0.0000000000000000e+00 0.0000000000000000e+00 0.0000000000000000e+00  0.0000000000000000e+00 0.0000000000000000e+00 0.0000000000000000e+00  0.0000000000000000e+00 0.0000000000000000e+00 0.0000000000000000e+00  0.0000000000000000e+00 0.0000000000000000e+00 0.0000000000000000e+00  -5.1873746526666367e-16 0.0000000000000000e+00 0.0000000000000000e+00  -1.6612503797430000e-15 4.0606803466318999e-16 0.0000000000000000e+00  0.0000000000000000e+00 5.6178005140308292e-16 0.0000000000000000e+00  -3.8495253123948065e-16 0.0000000000000000e+00 0.0000000000000000e+00  0.0000000000000000e+00 0.0000000000000000e+00 0.0000000000000000e+00  0.0000000000000000e+00 -4.9866456398039823e-16 0.0000000000000000e+00  0.0000000000000000e+00 0.0000000000000000e+00 0.0000000000000000e+00  1.1250000003539944e+00 3.0685101745471012e-10 0.0000000000000000e+00  1.5000000000001610e+00 4.9848831958930675e-10 0.0000000000000000e+00  1.1249999996462421e+00 3.0641407733564629e-10 0.0000000000000000e+00  6.4577353508831820e-16 0.0000000000000000e+00 0.0000000000000000e+00  0.0000000000000000e+00 -5.7232410564635372e-16 0.0000000000000000e+00  0.0000000000000000e+00 0.0000000000000000e+00 0.0000000000000000e+00  0.0000000000000000e+00 0.0000000000000000e+00 0.0000000000000000e+00  0.0000000000000000e+00 0.0000000000000000e+00 0.0000000000000000e+00  0.0000000000000000e+00 0.0000000000000000e+00 0.0000000000000000e+00  0.0000000000000000e+00 0.0000000000000000e+00 0.0000000000000000e+00  0.0000000000000000e+00 0.0000000000000000e+00 0.0000000000000000e+00  0.0000000000000000e+00 6.2146040078434642e-16 0.0000000000000000e+00  0.0000000000000000e+00 7.9467886041085526e-16 0.0000000000000000e+00  0.0000000000000000e+00 0.0000000000000000e+00 0.0000000000000000e+00  0.0000000000000000e+00 -4.8066332019008629e-16 0.0000000000000000e+00  0.0000000000000000e+00 0.0000000000000000e+00 0.0000000000000000e+00  0.0000000000000000e+00 0.0000000000000000e+00 0.0000000000000000e+00  0.0000000000000000e+00 0.0000000000000000e+00 0.0000000000000000e+00  0.0000000000000000e+00 0.0000000000000000e+00 0.0000000000000000e+00  0.0000000000000000e+00 0.0000000000000000e+00 0.0000000000000000e+00  7.6058626416354799e-16 0.0000000000000000e+00 0.0000000000000000e+00  0.0000000000000000e+00 0.0000000000000000e+00 0.0000000000000000e+00  0.0000000000000000e+00 0.0000000000000000e+00 0.0000000000000000e+00  0.0000000000000000e+00 0.0000000000000000e+00 0.0000000000000000e+00  1.1249999999999996e+00 0.0000000000000000e+00 0.0000000000000000e+00  1.5000000000000049e+00 0.0000000000000000e+00 0.0000000000000000e+00  1.1250000000000020e+00 0.0000000000000000e+00 0.0000000000000000e+00  0.0000000000000000e+00 0.0000000000000000e+00 0.0000000000000000e+00  2.4076890956513219e-15 6.0192163806610288e-16 0.0000000000000000e+00  3.3129293199648756e-16 0.0000000000000000e+00 0.0000000000000000e+00  0.0000000000000000e+00 0.0000000000000000e+00 0.0000000000000000e+00  0.0000000000000000e+00 0.0000000000000000e+00 0.0000000000000000e+00  0.0000000000000000e+00 0.0000000000000000e+00 0.0000000000000000e+00  -6.5055282842063773e-16 0.0000000000000000e+00 0.0000000000000000e+00  0.0000000000000000e+00 0.0000000000000000e+00 0.0000000000000000e+00  1.2548500710720556e+00 -3.2761958897704896e-01 0.0000000000000000e+00  1.4202798620894024e+00 4.9602830156430628e-05 0.0000000000000000e+00  1.4473151578866781e+00 5.2989473123724038e-06 0.0000000000000000e+00  1.4599981223228220e+00 7.7849949714674517e-05 0.0000000000000000e+00  1.4889375187012244e+00 1.9118880215726442e-06 0.0000000000000000e+00  1.4928174959964247e+00 1.0110913450260642e-04 0.0000000000000000e+00  1.4998220103579061e+00 1.8505712269187919e-08 0.0000000000000000e+00  1.5000919822219121e+00 -7.3291579247784978e-05 0.0000000000000000e+00  1.4999960165977315e+00 -3.0387701979200781e-07 0.0000000000000000e+00  1.4999141725601970e+00 -1.1442609201383102e-03 0.0000000000000000e+00  1.4999999142689746e+00 -1.7398096887393677e-07 0.0000000000000000e+00  1.4590573128899225e+00 -8.1451227484504937e-03 0.0000000000000000e+00  1.4923530656463111e+00 -4.9120342813409196e-08 0.0000000000000000e+00  1.4889776195983726e+00 -1.1508544072608544e-08 0.0000000000000000e+00  1.4953954493988963e+00 7.8466182639837966e-10 0.0000000000000000e+00  1.4291295520243497e+00 -4.2969304819284049e-01 0.0000000000000000e+00  1.7562272002980974e+00 -2.7550225565384695e-01 0.0000000000000000e+00  1.4163696358131292e+00 5.9650650229659031e-10 0.0000000000000000e+00  9.7468252404507238e-01 3.7608611552558250e-10 0.0000000000000000e+00  1.2754835811721159e+00 5.6437342626643461e-01 0.0000000000000000e+00  1.5547479162597539e+00 -2.9585314561494852e-01 0.0000000000000000e+00  1.0826261170888696e+00 2.9461722403545765e-01 0.0000000000000000e+00  8.2728808123464792e-01 -4.1643615893399488e-01 0.0000000000000000e+00  1.2183367715031082e+00 -2.3629474206318505e-02 0.0000000000000000e+00  1.1321805148863882e+00 -6.1046571144468487e-01 0.0000000000000000e+00  3.3967788117309494e-01 2.2003843533962231e-01 0.0000000000000000e+00  9.3398474616779037e-01 -1.3697050553237269e-08 0.0000000000000000e+00  1.1610548732431765e+00 -5.4371570106659379e-09 0.0000000000000000e+00  1.0771906645225260e+00 -5.6301244832945023e-08 0.0000000000000000e+00  1.1628862542844618e+00 -2.1262890181416643e-03 0.0000000000000000e+00  1.1175883380809828e+00 -1.4223331696841307e-07 0.0000000000000000e+00  1.1346627406267809e+00 -7.0588841523686722e-05 0.0000000000000000e+00  1.0696132021911759e+00 -1.5163174901239453e-07 0.0000000000000000e+00  1.1871692398215341e+00 1.0023109198394663e-04 0.0000000000000000e+00  1.1964830991620528e+00 4.1991976530196023e-06 0.0000000000000000e+00  1.3814887289378395e+00 4.1343739527059274e-05 0.0000000000000000e+00  9.4340113050717722e-01 4.0955914899607134e-05 0.0000000000000000e+00  1.3186291367030583e+00 7.9735091394715553e-07 0.0000000000000000e+00  1.2101792219787262e+00 5.6508561652074660e-10 0.0000000000000000e+00  1.2389894990795061e+00 -2.7905883031623320e-09 0.0000000000000000e+00  1.1419408026161395e+00 -1.0863548640355853e-08 0.0000000000000000e+00  1.0218141999651058e+00 9.8899479714050239e-08 0.0000000000000000e+00  1.1453787202990491e+00 -4.2175542321739264e-08 0.0000000000000000e+00  1.0725895194484183e+00 4.7505149835660379e-05 0.0000000000000000e+00  1.1280885841917248e+00 -1.1235692522690211e-07 0.0000000000000000e+00  1.1639018135425387e+00 -6.1962138671199912e-04 0.0000000000000000e+00  1.1151380917051019e+00 -1.8478547222358230e-07 0.0000000000000000e+00  1.1377754424745170e+00 -4.5347655471037596e-04 0.0000000000000000e+00  1.1237284197278019e+00 -3.1309352448014649e-05 0.0000000000000000e+00  1.1486018353348160e+00 1.9700792357982489e-10 0.0000000000000000e+00  1.3676977985702234e+00 -1.0966316582133485e-01 0.0000000000000000e+00  6.0341853554067915e-01 5.5065350704870530e-01 0.0000000000000000e+00  1.0693519620678182e+00 9.0379061945960212e-06 0.0000000000000000e+00  1.0378719229009292e+00 -1.1503934131296131e-01 0.0000000000000000e+00  1.4973303808888394e+00 -6.0619728467681102e-03 0.0000000000000000e+00  1.3948795592429599e+00 5.6857604215451190e-10 0.0000000000000000e+00  1.4866219058074512e+00 -1.1604084947289428e-09 0.0000000000000000e+00  6.3138430873377438e-01 -1.0292501607596959e-01 0.0000000000000000e+00  1.5423958628868844e+00 3.2955010624284281e-01 0.0000000000000000e+00  3.1530154013583878e-01 -2.9324291600902752e-01 0.0000000000000000e+00  1.2048374103608470e+00 7.8346140779634602e-02 0.0000000000000000e+00  9.3642670473329226e-01 2.6028093662303447e-05 0.0000000000000000e+00  1.4378956646750618e+00 9.7715573017696493e-05 0.0000000000000000e+00  9.1016801295772409e-01 1.2421794452269267e-06 0.0000000000000000e+00  8.4145855262260205e-01 1.5601763639176560e-05 0.0000000000000000e+00  8.2402955357835561e-01 1.9952336127144652e-10 0.0000000000000000e+00  1.1913217321401881e+00 1.0550608103791643e-02 0.0000000000000000e+00  7.6059925012227214e-01 7.2425403321500376e-08 0.0000000000000000e+00  1.7060830099549282e+00 -1.9315674424018914e-01 0.0000000000000000e+00  1.8953342443841361e+00 -1.1031173935188552e-02 0.0000000000000000e+00  1.4927321470754207e+00 2.1440162447320289e-05 0.0000000000000000e+00  9.3778986119662933e-01 -6.9544360513040690e-11 0.0000000000000000e+00  1.0145055680351229e+00 1.3183413922870791e-05 0.0000000000000000e+00  1.1811229145557820e+00 2.5557307194061568e-01 0.0000000000000000e+00  1.0032117872081419e+00 5.5117446906865419e-01 0.0000000000000000e+00  1.1455373973026728e+00 5.4630685398870615e-01 0.0000000000000000e+00  1.7642344435363633e+00 3.6096548701419928e-02 0.0000000000000000e+00  1.0981771468870734e+00 -5.7205825482039385e-01 0.0000000000000000e+00  1.7772067039792163e+00 4.6671081429701239e-01 0.0000000000000000e+00  1.1094935269177246e+00 1.0956143977696386e-01 0.0000000000000000e+00  1.2388839386372663e+00 -4.2079994508605223e-01 0.0000000000000000e+00  1.3644180088667013e+00 2.3038447131554000e-02 0.0000000000000000e+00  7.3396976387541379e-01 1.6920258380230632e-02 0.0000000000000000e+00  7.7348803405115951e-01 1.9888659502491016e-10 0.0000000000000000e+00  1.2967966769087873e+00 4.2218662643164784e-10 0.0000000000000000e+00  1.4790924088870139e+00 5.3475917104910484e-10 0.0000000000000000e+00  1.4062499997469513e+00 4.4595816580591460e-10 0.0000000000000000e+00  5.4983050945743772e-01 1.1580774690152943e-10 0.0000000000000000e+00  5.4983050973320358e-01 1.3807772228288126e-10 0.0000000000000000e+00  0.0000000000000000e+00 4.3733008925462735e-16 0.0000000000000000e+00  1.1557293036727390e+00 -4.9588684168388159e-02 0.0000000000000000e+00  9.3191179885220843e-01 -1.0764476228448734e-01 0.0000000000000000e+00  0.0000000000000000e+00 -1.9763260395123335e-15 0.0000000000000000e+00  7.4034173160212058e-01 1.1424361024751592e-01 0.0000000000000000e+00  5.2791423208585408e-01 5.4610840393829380e-02 0.0000000000000000e+00  0.0000000000000000e+00 -5.2933123123415912e-16 0.0000000000000000e+00  1.0639801341360982e+00 2.3033465040542622e-01 0.0000000000000000e+00  6.5624999999999878e-01 0.0000000000000000e+00 0.0000000000000000e+00  1.6014712229735732e+00 -4.1490367458012090e-01 0.0000000000000000e+00  1.0909439197973942e+00 -1.0840225504777883e-01 0.0000000000000000e+00  1.1413224778386193e+00 -1.7084149969734932e-01 0.0000000000000000e+00  1.3080659789763698e+00 4.9478449844660338e-01 0.0000000000000000e+00  1.2801363769911100e+00 3.5768483566791870e-01 0.0000000000000000e+00  1.2512022245756567e+00 -5.3304292135843589e-01 0.0000000000000000e+00  1.1056754612423323e+00 -3.9370814705177959e-01 0.0000000000000000e+00  1.3248021757555568e+00 -4.1868983651795122e-01 0.0000000000000000e+00  1.6782231215358754e+00 -4.9624590710897620e-01 0.0000000000000000e+00  1.4151964456246293e+00 -5.7622256632653468e-01 0.0000000000000000e+00  1.3287947176615578e+00 6.4016258427188898e-10 0.0000000000000000e+00  1.4446590342017114e+00 7.4216914741276368e-10 0.0000000000000000e+00  1.4877530020791581e+00 7.7753242981972940e-10 0.0000000000000000e+00  1.0659981413606419e+00 4.4341958713894908e-10 0.0000000000000000e+00  6.7414314274193154e-01 1.6112832795378793e-10 0.0000000000000000e+00  1.3908869455081878e+00 5.4742834510990047e-10 0.0000000000000000e+00  1.3429285860645821e+00 6.8114057484699554e-10 0.0000000000000000e+00  1.3535749179623571e+00 -6.1506945640181505e-02 0.0000000000000000e+00  1.4319480724773672e+00 -3.9403018077864269e-02 0.0000000000000000e+00  1.4359557667829606e+00 -3.0541978231697541e-02 0.0000000000000000e+00  1.4737198898868951e+00 5.2717548015979419e-10 0.0000000000000000e+00  1.2806973291675261e+00 4.0982338678723478e-10 0.0000000000000000e+00  1.4062500002534550e+00 4.4608191139449634e-10 0.0000000000000000e+00  1.4609486760651338e+00 -2.4413694246423797e-09 0.0000000000000000e+00  1.4999715047438487e+00 -4.7016498639027204e-09 0.0000000000000000e+00  1.4051731435907249e+00 -6.4668014705642904e-09 0.0000000000000000e+00  1.3782500698501017e+00 -3.4184795469460176e-09 0.0000000000000000e+00  1.4430694639534545e+00 -1.0066625598860871e-08 0.0000000000000000e+00  1.4161107097528234e+00 -2.0749605061163878e-03 0.0000000000000000e+00  1.4997503272233634e+00 -2.8103953576352494e-03 0.0000000000000000e+00  1.4110357586783564e+00 -1.5585571835748948e-03 0.0000000000000000e+00  1.2405097715611426e+00 -2.4656977671567701e-01 0.0000000000000000e+00  1.2788036107471110e+00 -2.3932748619526156e-01 0.0000000000000000e+00  4.0915295333048890e-01 3.6608471739420384e-01 0.0000000000000000e+00  3.1776791501904711e-01 3.7995333035820578e-01 0.0000000000000000e+00  0.0000000000000000e+00 0.0000000000000000e+00 0.0000000000000000e+00  1.7750878651603549e-01 2.3068127432301810e-01 0.0000000000000000e+00  1.1232361448324041e-01 9.2942310484696727e-02 0.0000000000000000e+00  -3.9132218035453122e-16 4.8283526767075361e-16 0.0000000000000000e+00  9.0834487763550897e-01 -5.6559909173446743e-01 0.0000000000000000e+00  1.4259431203120791e+00 5.8594051907170357e-05 0.0000000000000000e+00  1.4990427638976247e+00 5.2277808547234619e-05 0.0000000000000000e+00  1.4983066592627878e+00 6.9439099468911891e-05 0.0000000000000000e+00  1.3923825039035134e+00 3.2973471798618301e-06 0.0000000000000000e+00  1.4741769851372444e+00 6.2379868102723809e-06 0.0000000000000000e+00  1.4961340563050942e+00 3.4776072447354118e-06 0.0000000000000000e+00  1.1140887575098437e+00 1.1162495085859526e-06 0.0000000000000000e+00  1.3413219009985207e+00 7.5472276186344340e-07 0.0000000000000000e+00  6.1779668384448605e-01 1.6026778113920619e-05 0.0000000000000000e+00  6.1782428835141823e-01 1.2523424030296121e-05 0.0000000000000000e+00  0.0000000000000000e+00 0.0000000000000000e+00 0.0000000000000000e+00  1.3636147026195435e+00 7.7472248500607075e-05 0.0000000000000000e+00  1.3177739812736662e+00 7.1569180820943348e-05 0.0000000000000000e+00  1.4797175579565711e+00 9.8547883430251008e-05 0.0000000000000000e+00  1.0985766743249432e+00 3.1715016545503144e-05 0.0000000000000000e+00  1.3781306169314314e+00 4.1459989984562166e-05 0.0000000000000000e+00  6.5530583535041820e-01 -3.9989783459450845e-06 0.0000000000000000e+00  5.8199190683430635e-01 -5.2408416068988281e-08 0.0000000000000000e+00  5.8199185938604203e-01 1.1165762906595739e-10 0.0000000000000000e+00  -3.8765374973905212e-16 0.0000000000000000e+00 0.0000000000000000e+00  1.3757962656626239e+00 1.3280429933544863e-07 0.0000000000000000e+00  1.4964882544259872e+00 6.4683560762006696e-07 0.0000000000000000e+00  1.0697412019737027e+00 -1.3682351002838270e-07 0.0000000000000000e+00  1.3996017274527943e+00 -2.2900119594407737e-07 0.0000000000000000e+00  6.4888551684095375e-01 -6.8418291622019513e-08 0.0000000000000000e+00  6.5525553529752789e-01 -5.5452643278674886e-05 0.0000000000000000e+00  0.0000000000000000e+00 0.0000000000000000e+00 0.0000000000000000e+00  1.4054568337619477e+00 -6.7537392988003251e-05 0.0000000000000000e+00  1.4981747551977780e+00 5.8317195091221333e-05 0.0000000000000000e+00  1.1308478007184339e+00 -1.8432381821872771e-04 0.0000000000000000e+00  1.4090239914381779e+00 -3.3356902733123312e-04 0.0000000000000000e+00  6.6586303539923541e-01 -1.4746617948914058e-04 0.0000000000000000e+00  6.4888562592063581e-01 -5.4539084471956412e-08 0.0000000000000000e+00  0.0000000000000000e+00 0.0000000000000000e+00 0.0000000000000000e+00  1.4031644474297771e+00 -2.7447740099566727e-07 0.0000000000000000e+00  1.4999411937639942e+00 -2.7191565406302044e-07 0.0000000000000000e+00  1.1216410520801114e+00 -1.5515360812035726e-07 0.0000000000000000e+00  1.4064125896658484e+00 -2.3010726283349107e-07 0.0000000000000000e+00  6.5856961894230059e-01 -3.9073437436473602e-08 0.0000000000000000e+00  1.3930664991692501e+00 3.2443620548498858e-10 0.0000000000000000e+00  1.4994286257206226e+00 3.3399558366772865e-10 0.0000000000000000e+00  6.8374664663039164e-01 -2.1784723466211965e-09 0.0000000000000000e+00  6.8374664403627528e-01 -7.7594915378835003e-10 0.0000000000000000e+00  0.0000000000000000e+00 0.0000000000000000e+00 0.0000000000000000e+00  1.3878966713885170e+00 -2.0290455024356751e-08 0.0000000000000000e+00  1.4999230804314851e+00 -2.5616563763259387e-08 0.0000000000000000e+00  5.2278400178280404e-01 -5.2403841214356801e-09 0.0000000000000000e+00  5.2278399258512331e-01 -2.5920613320660082e-09 0.0000000000000000e+00  0.0000000000000000e+00 0.0000000000000000e+00 0.0000000000000000e+00  1.0547575565072296e+00 -9.3144340572774408e-09 0.0000000000000000e+00  1.3236896159243854e+00 -3.3659016778432731e-08 0.0000000000000000e+00  6.2110991295943374e-01 -2.2527550969635722e-08 0.0000000000000000e+00  6.2110987957618269e-01 -1.3385214767525942e-08 0.0000000000000000e+00  0.0000000000000000e+00 0.0000000000000000e+00 0.0000000000000000e+00  1.0081938981529728e+00 -2.9277558005543967e-08 0.0000000000000000e+00  1.3639553389178385e+00 -6.2685364670254225e-08 0.0000000000000000e+00  1.3943928707738595e+00 -1.2236775171394551e-07 0.0000000000000000e+00  1.4981010497227767e+00 -9.8802521409572231e-08 0.0000000000000000e+00  6.8548554665162331e-01 -1.1178846856275610e-03 0.0000000000000000e+00  6.8429515144400777e-01 -3.1275413195483507e-04 0.0000000000000000e+00  0.0000000000000000e+00 0.0000000000000000e+00 0.0000000000000000e+00  1.4141164749778532e+00 -5.1620825112553325e-03 0.0000000000000000e+00  1.4205982142396121e+00 -1.8098217994468656e-03 0.0000000000000000e+00  6.5070943749209675e-01 -5.5632347797187705e-08 0.0000000000000000e+00  6.5070935624541781e-01 -3.9368159236971906e-08 0.0000000000000000e+00  0.0000000000000000e+00 0.0000000000000000e+00 0.0000000000000000e+00  1.0976429880649399e+00 -9.4145279066590349e-08 0.0000000000000000e+00  1.4044876345004238e+00 -1.8742335243480123e-07 0.0000000000000000e+00  1.4050131874868368e+00 -2.5107839298099945e-07 0.0000000000000000e+00  1.4999986904250633e+00 -2.4711788013810490e-07 0.0000000000000000e+00  6.6337327319058603e-01 -2.5868713534793036e-05 0.0000000000000000e+00  6.6334817147196579e-01 3.5541990692786037e-05 0.0000000000000000e+00  0.0000000000000000e+00 0.0000000000000000e+00 0.0000000000000000e+00  1.1485744122915686e+00 -5.8310800393037256e-04 0.0000000000000000e+00  1.4137286695627862e+00 -5.5363930548083505e-04 0.0000000000000000e+00  1.4092814768796882e+00 -9.8494704292176238e-05 0.0000000000000000e+00  1.5000805692860857e+00 -4.2538339756637310e-04 0.0000000000000000e+00  6.1566336875396344e-01 -5.7966129255761250e-08 0.0000000000000000e+00  6.1566326388349990e-01 -6.3853712266781733e-08 0.0000000000000000e+00  0.0000000000000000e+00 0.0000000000000000e+00 0.0000000000000000e+00  1.0939550482647602e+00 -1.7710471585660497e-07 0.0000000000000000e+00  1.3930569853442747e+00 -2.69441