<?xml version="1.0"?>
<VTKFile type="UnstructuredGrid"  version="0.1"  >
<UnstructuredGrid>
<Piece  NumberOfPoints="525" NumberOfCells="924">
<Points>
<DataArray  type="Float64"  NumberOfComponents="3"  format="ascii">0 0 0  2.2 0 0  2.2 0.41 0  0 0.41 0  0.15 0.2 0  0.25 0.2 0  0.2 0.15 0  0.2 0.25 0  0.104762 0 0  0.209524 0 0  0.314286 0 0  0.419048 0 0  0.52381 0 0  0.628571 0 0  0.733333 0 0  0.838095 0 0  0.9428569999999999 0 0  1.04762 0 0  1.15238 0 0  1.25714 0 0  1.3619 0 0  1.46667 0 0  1.57143 0 0  1.67619 0 0  1.78095 0 0  1.88571 0 0  1.99048 0 0  2.09524 0 0  2.2 0.1025 0  2.2 0.205 0  2.2 0.3075 0  2.1 0.41 0  2 0.41 0  1.9 0.41 0  1.8 0.41 0  1.7 0.41 0  1.6 0.41 0  1.5 0.41 0  1.4 0.41 0  1.3 0.41 0  1.2 0.41 0  1.1 0.41 0  1 0.41 0  0.9 0.41 0  0.8 0.41 0  0.7 0.41 0  0.6 0.41 0  0.5 0.41 0  0.4 0.41 0  0.3 0.41 0  0.2 0.41 0  0.1 0.41 0  0 0.3075 0  0 0.205 0  0 0.1025 0  0.1566987973585577 0.2250001169958213 0  0.1749998830041787 0.2433012026414423 0  0.2250001169958213 0.2433012026414423 0  0.2433012026414423 0.2250001169958213 0  0.2433012026414423 0.1749998830041787 0  0.2250001169958213 0.1566987973585577 0  0.1749998830041787 0.1566987973585577 0  0.1566987973585577 0.1749998830041787 0  0.352033 0.262216 0  1.04579 0.252253 0  1.24065 0.243419 0  0.985775 0.171509 0  1.30324 0.187395 0  0.890988 0.190768 0  1.39085 0.202767 0  0.801464 0.204685 0  1.49904 0.204666 0  0.704267 0.202289 0  1.60238 0.204951 0  0.487789 0.19191 0  1.72935 0.219637 0  1.83335 0.187427 0  2.03359 0.193642 0  0.314663 0.307348 0  0.249039 0.333583 0  2.12147 0.253405 0  2.06373 0.0836837 0  0.0734726 0.267055 0  0.143989 0.0677174 0  0.0613613 0.33781 0  0.299628 0.236829 0  0.527114 0.295386 0  0.262384 0.26549 0  0.275777 0.18341 0  1.74578 0.330928 0  1.84001 0.302448 0  1.64998 0.313838 0  0.648421 0.302367 0  1.54544 0.308508 0  0.755686 0.306156 0  1.42668 0.314809 0  0.870524 0.298596 0  1.22553 0.112785 0  1.05603 0.147372 0  0.969346 0.329867 0  1.32527 0.276284 0  2.02914 0.29511 0  1.88168 0.119486 0  1.79545 0.104842 0  1.35688 0.0892539 0  1.69041 0.105324 0  0.914199 0.09555660000000001 0  1.58234 0.102923 0  0.61843 0.10815 0  1.47999 0.101161 0  0.725217 0.104273 0  0.821727 0.102306 0  1.96725 0.105778 0  0.418624 0.241547 0  0.135226 0.239087 0  1.14921 0.314841 0  0.404508 0.333259 0  0.590155 0.206269 0  2.12554 0.150731 0  1.93166 0.22436 0  0.104689 0.190046 0  0.267856 0.07447529999999999 0  0.269368 0.221581 0  0.434446 0.114927 0  1.0089 0.07933809999999999 0  0.953023 0.246698 0  1.25853 0.33355 0  1.05268 0.340828 0  2.1369 0.067383 0  0.522398 0.112537 0  1.3421 0.348929 0  0.215186 0.289473 0  0.203197 0.335348 0  1.13984 0.190728 0  1.93813 0.330504 0  1.10505 0.0883705 0  0.341988 0.0824728 0  0.253113 0.138035 0  0.291932 0.131907 0  0.203713 0.102439 0  0.150375 0.134668 0  0.151494 0.309119 0  0.354384 0.17896 0  0.06853670000000001 0.100776 0  0.424128 0.180088 0  0.474925 0.0568661 0  2.10843 0.347669 0  2.160735 0.2804525 0  2.160735 0.2292025 0  2.2 0.25625 0  2.079485 0.04184185 0  2.027105 0.04184185 0  2.04286 0 0  0.1767565 0.0338587 0  0.1243755 0.0338587 0  0.157143 0 0  0.08068065000000001 0.373905 0  0.03068065 0.373905 0  0.05 0.41 0  0.03068065 0.322655 0  0 0.35875 0  0.281851 0.3204655 0  0.2745195 0.3717915 0  0.3073315 0.358674 0  0.06741695 0.3024325 0  0.0367363 0.2872775 0  0.3071455 0.2720885 0  0.3258305 0.2495225 0  0.333348 0.284782 0  0.2557115 0.2995365 0  0.2885235 0.286419 0  2.075305 0.2742575 0  2.031365 0.244376 0  2.07753 0.2235235 0  2.01549 0.09473085000000001 0  1.978865 0.052889 0  2.00042 0.14971 0  2.04866 0.13866285 0  0.472869 0.2684665 0  0.4532065 0.2167285 0  0.5074514999999999 0.243648 0  2.16277 0.1778655 0  2.16277 0.1266155 0  2.2 0.15375 0  1.90667 0.171923 0  1.882505 0.2058935 0  1.857515 0.1534565 0  1.885835 0.263404 0  1.83668 0.2449375 0  0.6042925 0.1572095 0  0.647211 0.204279 0  0.6613485 0.1552195 0  0.3595855 0.3203035 0  0.3782705 0.2977375 0  0.155113 0.241194 0  0.1459625 0.2320435 0  0.1646446609406726 0.2353553390593274 0  0.259539 0.179205 0  0.2628885 0.191705 0  0.2482962819455563 0.1870590127797247 0  0.281006 0.2511595 0  1.0209025 0.1594405 0  1.05091 0.1998125 0  1.0157825 0.211881 0  1.264385 0.15009 0  1.23309 0.178102 0  1.271945 0.215407 0  1.291205 0.10101945 0  1.33006 0.13832445 0  0.928528 0.0477783 0  0.876147 0.0477783 0  0.890476 0 0  0.9025935 0.1431623 0  0.9499869999999999 0.1335328 0  0.9383815 0.1811385 0  0.867963 0.0989313 0  0.8563575 0.146537 0  0.8299110000000001 0.051153 0  1.411775 0.04462695 0  1.35939 0.04462695 0  1.414285 0 0  1.373865 0.14601045 0  1.347045 0.195081 0  1.418435 0.09520745 0  1.43542 0.151964 0  1.47333 0.0505805 0  0.7775300000000001 0.051153 0  0.785714 0 0  0.8115954999999999 0.1534955 0  0.8462259999999999 0.1977265 0  0.7734719999999999 0.1032895 0  0.7633405 0.154479 0  0.729275 0.0521365 0  1.52571 0.0505805 0  1.51905 0 0  1.489515 0.1529135 0  1.444945 0.2037165 0  1.531165 0.102042 0  1.54069 0.1537945 0  1.576885 0.0514615 0  1.9804 0.259735 0  1.982625 0.209001 0  1.820005 0.356224 0  1.870005 0.356224 0  1.85 0.41 0  1.78468 0.2610425 0  1.78135 0.203532 0  1.72289 0.370464 0  1.77289 0.370464 0  1.75 0.41 0  1.792895 0.316688 0  1.737565 0.2752825 0  1.62499 0.361919 0  1.67499 0.361919 0  1.65 0.41 0  1.69788 0.322383 0  1.689665 0.2667375 0  1.62618 0.2593945 0  1.665865 0.212294 0  0.6242105 0.3561835 0  0.6742105 0.3561835 0  0.6499999999999999 0.41 0  0.6192880000000001 0.254318 0  0.6763440000000001 0.252328 0  1.52272 0.359254 0  1.57272 0.359254 0  1.55 0.41 0  1.59771 0.311173 0  1.57391 0.2567295 0  1.52224 0.256587 0  1.55071 0.2048085 0  0.727843 0.358078 0  0.7778430000000001 0.358078 0  0.75 0.41 0  0.7020535 0.3042615 0  0.7299765 0.2542225 0  0.778575 0.2554205 0  0.7528655 0.203487 0  1.41334 0.3624045 0  1.46334 0.3624045 0  1.45 0.41 0  1.48606 0.3116585 0  1.46286 0.2597375 0  1.408765 0.258788 0  0.8352619999999999 0.354298 0  0.885262 0.354298 0  0.8500000000000001 0.41 0  0.813105 0.302376 0  0.8359939999999999 0.2516405 0  0.880756 0.244682 0  0.9346730000000001 0.3699335 0  0.984673 0.3699335 0  0.95 0.41 0  0.9199349999999999 0.3142315 0  0.676894 0.0521365 0  0.680952 0 0  0.714742 0.153281 0  0.6718235 0.1062115 0  0.6235005 0.054075 0  1.629265 0.0514615 0  1.62381 0 0  1.59236 0.153937 0  1.636375 0.1041235 0  1.646395 0.1551375 0  1.6833 0.052662 0  1.73568 0.052662 0  1.72857 0 0  1.70988 0.1624805 0  1.74293 0.105083 0  1.7624 0.1622395 0  1.7882 0.052421 0  1.84058 0.052421 0  1.83333 0 0  1.8144 0.1461345 0  1.838565 0.112164 0  1.883695 0.059743 0  1.124605 0.3624205 0  1.174605 0.3624205 0  1.15 0.41 0  1.314255 0.2318395 0  1.28296 0.2598515 0  1.35806 0.2395255 0  1.375975 0.2955465 0  1.92648 0.052889 0  1.938095 0 0  1.924465 0.112632 0  1.949455 0.165069 0  0.352254 0.3716295 0  0.402254 0.3716295 0  0.35 0.41 0  0.513557 0.352693 0  0.563557 0.352693 0  0.55 0.41 0  0.5877675 0.2988765 0  0.5586344999999999 0.2508275 0  0.538972 0.1990895 0  0.452254 0.3716295 0  0.45 0.41 0  0.465811 0.3143225 0  0.411566 0.287403 0  0.3853285 0.2518815 0  0.1199575 0.2145665 0  0.0890808 0.2285505 0  0.1043493 0.253071 0  0.2245195 0.3717915 0  0.25 0.41 0  0.291071 0.03723765 0  0.23869 0.03723765 0  0.261905 0 0  0.265876 0.2435355 0  0.2563345 0.2232905 0  0.2528425 0.245245 0  0.284498 0.229205 0  1.032465 0.11335505 0  0.9973375 0.12542355 0  0.9615494999999999 0.08744735000000001 0  0.9220055 0.218733 0  0.9693989999999999 0.2091035 0  0.9611845 0.2882825 0  0.9117735 0.272647 0  1.229265 0.371775 0  1.279265 0.371775 0  1.25 0.41 0  1.02634 0.375414 0  1.07634 0.375414 0  1.05 0.41 0  1.011013 0.3353475 0  2.11607 0.0336915 0  2.16845 0.0336915 0  2.14762 0 0  2.16845 0.0849415 0  2.2 0.05125 0  2.100315 0.07553335 0  0.5562765000000001 0.159403 0  0.570414 0.1103435 0  0.5050935 0.1522235 0  1.32105 0.3794645 0  1.37105 0.3794645 0  1.35 0.41 0  1.333685 0.3126065 0  1.38439 0.331869 0  0.9994065 0.2494755 0  1.007568 0.29106 0  1.300315 0.3412395 0  1.2919 0.304917 0  2.13122 0.109057 0  2.094635 0.11720735 0  0.2725725 0.2024955 0  0.259684 0.2107905 0  0.2482962819455563 0.2129409872202754 0  0.2877025 0.2101195 0  2.123505 0.202068 0  2.079565 0.1721865 0  1.02826 0.03966905 0  0.9758784999999999 0.03966905 0  0.9952384999999999 0 0  1.049235 0.2965405 0  1.100945 0.3278345 0  1.0975 0.283547 0  0.5711200000000001 0.054075 0  0.5761905 0 0  0.523104 0.0562685 0  1.24959 0.2884845 0  1.20387 0.3241955 0  1.19493 0.27913 0  0.238785 0.2774815 0  0.2321125 0.311528 0  0.226118 0.3344655 0  0.2015985 0.3726739999999999 0  1.144525 0.2527845 0  1.190245 0.2170735 0  1.092815 0.2214905 0  0.2091915 0.3124105 0  0.220093 0.266387 0  0.243692 0.2543955 0  0.2353553390593274 0.2353553390593274 0  0.478422 0.113732 0  0.4611175 0.1534185 0  1.919065 0.370252 0  1.969065 0.370252 0  1.95 0.41 0  1.983635 0.312807 0  2.01457 0.352555 0  1.88907 0.316476 0  1.934895 0.277432 0  1.182685 0.1517565 0  1.097935 0.16905 0  1.128715 0.04418525 0  1.076335 0.04418525 0  1.1 0 0  1.056975 0.08385429999999999 0  1.08054 0.11787125 0  1.122445 0.13954925 0  1.16529 0.10057775 0  0.304922 0.07847404999999999 0  0.328137 0.0412364 0  0.380518 0.0412364 0  0.366667 0 0  0.388217 0.09869990000000001 0  0.426747 0.0574635 0  0.31696 0.1071899 0  0.279894 0.10319115 0  0.2725225 0.134971 0  0.2604845 0.10625515 0  0.228413 0.120237 0  0.2143565 0.129569 0  0.2390565 0.147367 0  1.30701 0.04462695 0  1.30952 0 0  1.241335 0.0563925 0  0.2357845 0.08845715 0  1.188955 0.0563925 0  1.20476 0 0  0.2066185 0.0512195 0  0.173851 0.08507819999999999 0  0.0367363 0.2360275 0  0 0.25625 0  0.264445 0.1607225 0  0.248207 0.1565175 0  0.2353553390593274 0.1646446609406726 0  0.2838545 0.1576585 0  0.130694 0.182523 0  0.1273445 0.195023 0  0.1517037180544437 0.1870590127797247 0  0.127532 0.162357 0  0.153537 0.154834 0  0.0523445 0.197523 0  0
[...]
<PointData  Vectors="u"> 
<DataArray  type="Float64"  Name="u"  NumberOfComponents="3" format="ascii">1.0275783387449942e-15 -2.6651822704244818e-15 0.0000000000000000e+00  0.0000000000000000e+00 0.0000000000000000e+00 0.0000000000000000e+00  0.0000000000000000e+00 0.0000000000000000e+00 0.0000000000000000e+00  0.0000000000000000e+00 0.0000000000000000e+00 0.0000000000000000e+00  0.0000000000000000e+00 0.0000000000000000e+00 0.0000000000000000e+00  0.0000000000000000e+00 0.0000000000000000e+00 0.0000000000000000e+00  0.0000000000000000e+00 -5.9918301155359761e-16 0.0000000000000000e+00  0.0000000000000000e+00 0.0000000000000000e+00 0.0000000000000000e+00  0.0000000000000000e+00 -5.6206164915966731e-16 0.0000000000000000e+00  0.0000000000000000e+00 3.0783443802306979e-15 0.0000000000000000e+00  0.0000000000000000e+00 4.0516308842459561e-16 0.0000000000000000e+00  0.0000000000000000e+00 1.3159675587125169e-15 0.0000000000000000e+00  0.0000000000000000e+00 1.0838745584832165e-15 0.0000000000000000e+00  0.0000000000000000e+00 0.0000000000000000e+00 0.0000000000000000e+00  0.0000000000000000e+00 0.0000000000000000e+00 0.0000000000000000e+00  0.0000000000000000e+00 -7.1992512271708243e-16 0.0000000000000000e+00  0.0000000000000000e+00 1.1146842862501333e-15 0.0000000000000000e+00  0.0000000000000000e+00 0.0000000000000000e+00 0.0000000000000000e+00  0.0000000000000000e+00 -1.5355834834472951e-15 0.0000000000000000e+00  0.0000000000000000e+00 4.7895489586710203e-16 0.0000000000000000e+00  0.0000000000000000e+00 0.0000000000000000e+00 0.0000000000000000e+00  0.0000000000000000e+00 -3.0718374616290311e-16 0.0000000000000000e+00  4.4422009205318083e-16 8.3562741982472704e-16 0.0000000000000000e+00  0.0000000000000000e+00 0.0000000000000000e+00 0.0000000000000000e+00  -7.8423984500958518e-16 0.0000000000000000e+00 0.0000000000000000e+00  0.0000000000000000e+00 0.0000000000000000e+00 0.0000000000000000e+00  0.0000000000000000e+00 7.0608240678443235e-16 0.0000000000000000e+00  0.0000000000000000e+00 0.0000000000000000e+00 0.0000000000000000e+00  1.1250000001485285e+00 4.0828057211859542e-10 0.0000000000000000e+00  1.5000000000004052e+00 6.7847887189769000e-10 0.0000000000000000e+00  1.1249999998516635e+00 4.0787156198929232e-10 0.0000000000000000e+00  8.9263295224404100e-16 0.0000000000000000e+00 0.0000000000000000e+00  0.0000000000000000e+00 1.5528317487842290e-15 0.0000000000000000e+00  6.5637353613432273e-16 0.0000000000000000e+00 0.0000000000000000e+00  0.0000000000000000e+00 0.0000000000000000e+00 0.0000000000000000e+00  0.0000000000000000e+00 0.0000000000000000e+00 0.0000000000000000e+00  0.0000000000000000e+00 0.0000000000000000e+00 0.0000000000000000e+00  0.0000000000000000e+00 0.0000000000000000e+00 0.0000000000000000e+00  0.0000000000000000e+00 0.0000000000000000e+00 0.0000000000000000e+00  0.0000000000000000e+00 0.0000000000000000e+00 0.0000000000000000e+00  0.0000000000000000e+00 0.0000000000000000e+00 0.0000000000000000e+00  0.0000000000000000e+00 0.0000000000000000e+00 0.0000000000000000e+00  0.0000000000000000e+00 0.0000000000000000e+00 0.0000000000000000e+00  0.0000000000000000e+00 0.0000000000000000e+00 0.0000000000000000e+00  0.0000000000000000e+00 -1.0126071973123407e-15 0.0000000000000000e+00  0.0000000000000000e+00 0.0000000000000000e+00 0.0000000000000000e+00  0.0000000000000000e+00 0.0000000000000000e+00 0.0000000000000000e+00  0.0000000000000000e+00 0.0000000000000000e+00 0.0000000000000000e+00  0.0000000000000000e+00 0.0000000000000000e+00 0.0000000000000000e+00  0.0000000000000000e+00 -4.4184369617841459e-16 0.0000000000000000e+00  0.0000000000000000e+00 -3.6091968319762792e-16 0.0000000000000000e+00  0.0000000000000000e+00 0.0000000000000000e+00 0.0000000000000000e+00  1.1250000000000004e+00 0.0000000000000000e+00 0.0000000000000000e+00  1.5000000000000018e+00 0.0000000000000000e+00 0.0000000000000000e+00  1.1249999999999989e+00 5.6445048945632470e-16 0.0000000000000000e+00  0.0000000000000000e+00 0.0000000000000000e+00 0.0000000000000000e+00  1.8210228156454630e-15 0.0000000000000000e+00 0.0000000000000000e+00  0.0000000000000000e+00 0.0000000000000000e+00 0.0000000000000000e+00  0.0000000000000000e+00 0.0000000000000000e+00 0.0000000000000000e+00  0.0000000000000000e+00 0.0000000000000000e+00 0.0000000000000000e+00  0.0000000000000000e+00 0.0000000000000000e+00 0.0000000000000000e+00  3.7246350215756298e-16 0.0000000000000000e+00 0.0000000000000000e+00  -3.1281964405200202e-16 0.0000000000000000e+00 0.0000000000000000e+00  1.2552744790646857e+00 -3.3035035793693418e-01 0.0000000000000000e+00  1.4202844544659643e+00 5.0408163260530972e-05 0.0000000000000000e+00  1.4473167073433366e+00 1.5851649743878285e-06 0.0000000000000000e+00  1.4599983864798076e+00 9.9146835464854920e-05 0.0000000000000000e+00  1.4889371288477975e+00 -4.5318477946501480e-07 0.0000000000000000e+00  1.4928292918432453e+00 2.3103934276415009e-04 0.0000000000000000e+00  1.4998219936069443e+00 -9.3840573129124531e-07 0.0000000000000000e+00  1.5000933267170233e+00 3.4385678556504235e-04 0.0000000000000000e+00  1.4999960161242372e+00 -5.1363186251965091e-07 0.0000000000000000e+00  1.4999303339010184e+00 -5.3496779478953725e-05 0.0000000000000000e+00  1.4999999143130327e+00 -1.8844105229462836e-07 0.0000000000000000e+00  1.4586520719377074e+00 -6.9026291399713292e-03 0.0000000000000000e+00  1.4923530623495653e+00 -3.2704639165347841e-08 0.0000000000000000e+00  1.4889776212867123e+00 -2.0598682587716065e-09 0.0000000000000000e+00  1.4953954494696862e+00 1.8759290383455515e-09 0.0000000000000000e+00  1.4303823199637380e+00 -4.2999910877555730e-01 0.0000000000000000e+00  1.7573096857821995e+00 -2.7567249098291802e-01 0.0000000000000000e+00  1.4163696358392388e+00 8.7449390639214980e-10 0.0000000000000000e+00  9.7468252416298673e-01 6.2424068286529412e-10 0.0000000000000000e+00  1.2758126141170636e+00 5.6575470009536888e-01 0.0000000000000000e+00  1.5543566062458050e+00 -2.9561107097793998e-01 0.0000000000000000e+00  1.0831548565804290e+00 2.9523299253774921e-01 0.0000000000000000e+00  8.2773562596621586e-01 -4.1541624886796702e-01 0.0000000000000000e+00  1.2152973187951526e+00 -2.3077807934791500e-02 0.0000000000000000e+00  1.1322933829592403e+00 -6.0966386918961157e-01 0.0000000000000000e+00  3.3982458767836549e-01 2.2176244786585203e-01 0.0000000000000000e+00  9.3398473100365520e-01 -7.2184644595461172e-09 0.0000000000000000e+00  1.1610548669193925e+00 -1.1984646293488647e-10 0.0000000000000000e+00  1.0771906386684564e+00 -4.8937656236496053e-08 0.0000000000000000e+00  1.1616064769869319e+00 -1.2395060699080800e-03 0.0000000000000000e+00  1.1175883351269080e+00 -1.7991145578231821e-07 0.0000000000000000e+00  1.1342585796682740e+00 2.9111701169701046e-04 0.0000000000000000e+00  1.0696134618209199e+00 -4.2791579755175942e-07 0.0000000000000000e+00  1.1870987139842537e+00 2.0099631535556233e-04 0.0000000000000000e+00  1.1964797235006868e+00 1.4033041318573001e-06 0.0000000000000000e+00  1.3814829987755095e+00 4.0292758577006785e-05 0.0000000000000000e+00  9.4340352371542713e-01 5.0290453751255897e-05 0.0000000000000000e+00  1.3186301612722051e+00 -6.6927989336194205e-07 0.0000000000000000e+00  1.2101792215769178e+00 1.2588998090981279e-09 0.0000000000000000e+00  1.2389895028784073e+00 1.3957107263967221e-09 0.0000000000000000e+00  1.1419408125187043e+00 -3.6649916239177350e-09 0.0000000000000000e+00  1.0218134367898808e+00 -4.9628832339780183e-07 0.0000000000000000e+00  1.1453787417239309e+00 -3.1690089802382333e-08 0.0000000000000000e+00  1.0726140374512667e+00 8.6976263114720782e-05 0.0000000000000000e+00  1.1280886040382412e+00 -1.2439841297213732e-07 0.0000000000000000e+00  1.1656215215272137e+00 6.1410373342329579e-04 0.0000000000000000e+00  1.1151380063140159e+00 -3.2165369868348454e-07 0.0000000000000000e+00  1.1383643119925428e+00 5.1988578986710387e-05 0.0000000000000000e+00  1.1238902628332721e+00 1.3787141250209186e-04 0.0000000000000000e+00  1.1486018365785176e+00 1.5826880108397102e-09 0.0000000000000000e+00  1.3642919142669268e+00 -1.1461385938282466e-01 0.0000000000000000e+00  6.0251969612141432e-01 5.5000109162794508e-01 0.0000000000000000e+00  1.0693585073100775e+00 5.7618952920981670e-06 0.0000000000000000e+00  1.0371545025348092e+00 -1.1647830256481480e-01 0.0000000000000000e+00  1.4970965321758154e+00 -3.8383153179255653e-03 0.0000000000000000e+00  1.3948795592056380e+00 8.2227574016042095e-10 0.0000000000000000e+00  1.4866219052005791e+00 2.6011599461606839e-09 0.0000000000000000e+00  6.3071915279020863e-01 -1.0263400809205744e-01 0.0000000000000000e+00  1.5413034866385873e+00 3.2923472903670192e-01 0.0000000000000000e+00  3.1514260933006388e-01 -2.9152331799508685e-01 0.0000000000000000e+00  1.2087947870808560e+00 7.7275829213979477e-02 0.0000000000000000e+00  9.3641807054680615e-01 2.8185414622749646e-05 0.0000000000000000e+00  1.4378899749135323e+00 1.3963680697742391e-04 0.0000000000000000e+00  9.1017043087069294e-01 5.9377496217386915e-09 0.0000000000000000e+00  8.4146847715186024e-01 1.4395573843847884e-05 0.0000000000000000e+00  8.2402955344797812e-01 2.6363572815358862e-10 0.0000000000000000e+00  1.1947199491353413e+00 1.2115574002474268e-02 0.0000000000000000e+00  7.6060002431987606e-01 -2.9874676132510342e-07 0.0000000000000000e+00  1.7058864023360119e+00 -1.9357828555873169e-01 0.0000000000000000e+00  1.8966352385357490e+00 -1.1215858574985851e-02 0.0000000000000000e+00  1.4927308920253664e+00 1.5486815347790830e-05 0.0000000000000000e+00  9.3778985939771464e-01 1.1778988954435781e-09 0.0000000000000000e+00  1.0144970415279613e+00 1.0176206117904771e-05 0.0000000000000000e+00  1.1817658070197647e+00 2.5307675228260851e-01 0.0000000000000000e+00  1.0031954484092833e+00 5.5199768095703983e-01 0.0000000000000000e+00  1.1444022435227261e+00 5.4518177248395916e-01 0.0000000000000000e+00  1.7636903433184496e+00 3.6708367151878217e-02 0.0000000000000000e+00  1.0972664686994564e+00 -5.7160383933297021e-01 0.0000000000000000e+00  1.7783729940370476e+00 4.6693937465468427e-01 0.0000000000000000e+00  1.1069379904152621e+00 1.0331918849160093e-01 0.0000000000000000e+00  1.2385395992908150e+00 -4.2054486652624573e-01 0.0000000000000000e+00  1.3633591886496457e+00 1.8949724981778309e-02 0.0000000000000000e+00  7.3760176440002279e-01 1.7162180210485312e-02 0.0000000000000000e+00  7.7348803412535783e-01 2.7289443208846960e-10 0.0000000000000000e+00  1.2967966770278716e+00 5.7327202734518685e-10 0.0000000000000000e+00  1.4790924089266384e+00 7.3897647576770579e-10 0.0000000000000000e+00  1.4062499998661420e+00 6.0333596142195687e-10 0.0000000000000000e+00  5.4983050943881928e-01 1.6710081816811023e-10 0.0000000000000000e+00  5.4983050991325666e-01 2.5568563487292372e-10 0.0000000000000000e+00  0.0000000000000000e+00 -1.2564100188208774e-15 0.0000000000000000e+00  1.1553164737154249e+00 -4.9446733331544195e-02 0.0000000000000000e+00  9.3175570185387702e-01 -1.0758604460774483e-01 0.0000000000000000e+00  0.0000000000000000e+00 0.0000000000000000e+00 0.0000000000000000e+00  7.4087678221917830e-01 1.1445025010786548e-01 0.0000000000000000e+00  5.2801702012656104e-01 5.4730167771582128e-02 0.0000000000000000e+00  0.0000000000000000e+00 -5.2795359422379259e-16 0.0000000000000000e+00  1.0641544589666834e+00 2.3088996689306260e-01 0.0000000000000000e+00  6.5624999999999967e-01 0.0000000000000000e+00 0.0000000000000000e+00  1.6025260197366842e+00 -4.1493793969398318e-01 0.0000000000000000e+00  1.0918915582409454e+00 -1.0846181353188857e-01 0.0000000000000000e+00  1.1423201317059568e+00 -1.7099688423757270e-01 0.0000000000000000e+00  1.3086409756460109e+00 4.9587470533696881e-01 0.0000000000000000e+00  1.2803303866702664e+00 3.5868602390556220e-01 0.0000000000000000e+00  1.2523191321697320e+00 -5.3280591364220586e-01 0.0000000000000000e+00  1.1064121345686755e+00 -3.9460924142731124e-01 0.0000000000000000e+00  1.3260360427703615e+00 -4.1970557833331862e-01 0.0000000000000000e+00  1.6786728215208266e+00 -4.9618949686208036e-01 0.0000000000000000e+00  1.4160751133216363e+00 -5.7579857384325617e-01 0.0000000000000000e+00  1.3287947175609724e+00 1.0904236626700456e-09 0.0000000000000000e+00  1.4446590339637966e+00 1.7765485259196966e-09 0.0000000000000000e+00  1.4877530020448613e+00 1.3581649308128930e-09 0.0000000000000000e+00  1.0659981418784854e+00 1.0643775531321575e-09 0.0000000000000000e+00  6.7414314343762660e-01 5.2712953233653366e-10 0.0000000000000000e+00  1.3908869460653164e+00 1.9713249094028347e-09 0.0000000000000000e+00  1.3429285862955809e+00 1.3587896694882705e-09 0.0000000000000000e+00  1.3499305759396567e+00 -6.2638237766427809e-02 0.0000000000000000e+00  1.4289776822352300e+00 -4.1512000054491432e-02 0.0000000000000000e+00  1.4331748448784916e+00 -2.9564618438751647e-02 0.0000000000000000e+00  1.4737198898418271e+00 7.2638579188811799e-10 0.0000000000000000e+00  1.2806973290417194e+00 5.5473245918271495e-10 0.0000000000000000e+00  1.4062500001346758e+00 6.0323978368281119e-10 0.0000000000000000e+00  1.4609486774498956e+00 2.2524005766346826e-09 0.0000000000000000e+00  1.4999715046904811e+00 1.6041186451924122e-09 0.0000000000000000e+00  1.4051731471728146e+00 3.8639251208219895e-10 0.0000000000000000e+00  1.3782500669705102e+00 1.6552684728938618e-09 0.0000000000000000e+00  1.4430694603996601e+00 -1.4287663533695441e-09 0.0000000000000000e+00  1.4172551410825471e+00 -1.0820261541898811e-04 0.0000000000000000e+00  1.4997084309586093e+00 -1.1411630068930193e-03 0.0000000000000000e+00  1.4117761967482656e+00 -1.9125483226333715e-04 0.0000000000000000e+00  1.2411644446082781e+00 -2.4783909566635148e-01 0.0000000000000000e+00  1.2788097059857642e+00 -2.4179533138146195e-01 0.0000000000000000e+00  4.0804799987700935e-01 3.6506630241461191e-01 0.0000000000000000e+00  3.1689233654264348e-01 3.7895352344294636e-01 0.0000000000000000e+00  0.0000000000000000e+00 0.0000000000000000e+00 0.0000000000000000e+00  1.7788771947794049e-01 2.3203699900341088e-01 0.0000000000000000e+00  1.1249477072648834e-01 9.4507614511349772e-02 0.0000000000000000e+00  0.0000000000000000e+00 -4.4804086566320810e-16 0.0000000000000000e+00  9.0871072942817099e-01 -5.6430748049803536e-01 0.0000000000000000e+00  1.4259398066196116e+00 6.5004371791147188e-05 0.0000000000000000e+00  1.4990422830081500e+00 5.2733277340001670e-05 0.0000000000000000e+00  1.4983071687279494e+00 7.9061486267996878e-05 0.0000000000000000e+00  1.3923808324829050e+00 4.3599686427763421e-07 0.0000000000000000e+00  1.4741757965646844e+00 2.1812904310235643e-06 0.0000000000000000e+00  1.4961343780368237e+00 3.4275397129051756e-07 0.0000000000000000e+00  1.1140869881248634e+00 -2.9878769374557850e-07 0.0000000000000000e+00  1.3413209732625480e+00 -6.9709128236813142e-07 0.0000000000000000e+00  6.1780036649877279e-01 2.4138967087888589e-05 0.0000000000000000e+00  6.1785727026787318e-01 3.3148008936214739e-05 0.0000000000000000e+00  0.0000000000000000e+00 0.0000000000000000e+00 0.0000000000000000e+00  1.3636467407438186e+00 1.6428226503120675e-04 0.0000000000000000e+00  1.3177823848266386e+00 1.0634816984754475e-04 0.0000000000000000e+00  1.4797238942541302e+00 1.5766188547263369e-04 0.0000000000000000e+00  1.0986494134131952e+00 1.1799112867643190e-04 0.0000000000000000e+00  1.3782053561147074e+00 2.1527896392057423e-04 0.0000000000000000e+00  6.5539894320684255e-01 4.1844971422900183e-05 0.0000000000000000e+00  5.8199171357026980e-01 -1.3964245112539425e-07 0.0000000000000000e+00  5.8199139281601642e-01 -1.6975957048365683e-07 0.0000000000000000e+00  0.0000000000000000e+00 0.0000000000000000e+00 0.0000000000000000e+00  1.3757957844663444e+00 -8.2281535841847610e-07 0.0000000000000000e+00  1.4964881229774409e+00 -9.0553861502184408e-07 0.0000000000000000e+00  1.0697409012068566e+00 -4.4560445845081644e-07 0.0000000000000000e+00  1.3996015541701612e+00 -6.8985625968976063e-07 0.0000000000000000e+00  6.4888546780850898e-01 -1.1133669164565985e-07 0.0000000000000000e+00  6.5547204054918484e-01 3.3028048482631710e-05 0.0000000000000000e+00  0.0000000000000000e+00 -1.2484724199282078e-15 0.0000000000000000e+00  1.4055924392963703e+00 2.5214346333894900e-04 0.0000000000000000e+00  1.4981880314845304e+00 3.0068447469422556e-04 0.0000000000000000e+00  1.1311711628583423e+00 1.1846984106384985e-04 0.0000000000000000e+00  1.4092761655691999e+00 2.1544274389533003e-04 0.0000000000000000e+00  6.6628642479563160e-01 7.6326909442463781e-06 0.0000000000000000e+00  6.4888563282242351e-01 -6.9715524209059611e-08 0.0000000000000000e+00  -5.8332519737005728e-16 0.0000000000000000e+00 0.0000000000000000e+00  1.4031643905695668e+00 -4.8139790794813140e-07 0.0000000000000000e+00  1.4999411892861363e+00 -7.4995206698201018e-07 0.0000000000000000e+00  1.1216410434140223e+00 -2.0821913310416928e-07 0.0000000000000000e+00  1.4064125817447091e+00 -3.1014614904944546e-07 0.0000000000000000e+00  6.5856964342889346e-01 -4.1588028077203199e-08 0.0000000000000000e+00  1.3930664984014698e+00 2.1665371938897072e-09 0.0000000000000000e+00  1.4994286256580327e+00 2.4639947375108451e-09 0.0000000000000000e+00  6.8374664030903987e-01 -8.9731310138097264e-11 0.0000000000000000e+00  6.8374664049005762e-01 5.5431414445795390e-10 0.0000000000000000e+00  0.0000000000000000e+00 0.0000000000000000e+00 0.0000000000000000e+00  1.3878966636963883e+00 -8.8317233449229238e-09 0.0000000000000000e+00  1.4999230806460664e+00 -1.2048846712329989e-08 0.0000000000000000e+00  5.2278398898422496e-01 -2.9245838581833642e-09 0.0000000000000000e+00  5.2278398433814410e-01 -8.4963869202953068e-10 0.0000000000000000e+00  0.0000000000000000e+00 0.0000000000000000e+00 0.0000000000000000e+00  1.0547575462387060e+00 -3.0520404106211420e-09 0.0000000000000000e+00  1.3236896027135019e+00 -2.0677203806499276e-08 0.0000000000000000e+00  6.2110988795017985e-01 -2.0176108857278406e-08 0.0000000000000000e+00  6.2110985935354879e-01 -9.8825974490589693e-09 0.0000000000000000e+00  0.0000000000000000e+00 0.0000000000000000e+00 0.0000000000000000e+00  1.0081938767722198e+00 -2.0785668090110897e-08 0.0000000000000000e+00  1.3639553232371808e+00 -4.8785150583739563e-08 0.0000000000000000e+00  1.3943928556256353e+00 -1.2047962806047519e-07 0.0000000000000000e+00  1.4981010475966698e+00 -8.5892478286932357e-08 0.0000000000000000e+00  6.8422355200140017e-01 -8.0072180358456814e-04 0.0000000000000000e+00  6.8350140712086771e-01 -6.4076053692446540e-05 0.0000000000000000e+00  0.0000000000000000e+00 0.0000000000000000e+00 0.0000000000000000e+00  1.4129493138205280e+00 -3.5464734091608550e-03 0.0000000000000000e+00  1.4199533384121739e+00 -6.3188816375360144e-04 0.0000000000000000e+00  6.5070943240129941e-01 -7.1766445256285510e-08 0.0000000000000000e+00  6.5070933240686613e-01 -4.2431384818442503e-08 0.0000000000000000e+00  0.0000000000000000e+00 0.0000000000000000e+00 0.0000000000000000e+00  1.0976429640701708e+00 -9.8338282275579331e-08 0.0000000000000000e+00  1.4044876281531979e+00 -2.2159606322160741e-07 0.0000000000000000e+00  1.4050132084626032e+00 -3.6717425530583660e-07 0.0000000000000000e+00  1.4999986904989491e+00 -3.2417361700213666e-07 0.0000000000000000e+00  6.6294780984492507e-01 1.2506965983939569e-04 0.0000000000000000e+00  6.6312919255022362e-01 1.2578305149024542e-04 0.0000000000000000e+00  0.0000000000000000e+00 0.0000000000000000e+00 0.0000000000000000e+00  1.1478226999583236e+00 2.0360054106348709e-05 0.0000000000000000e+00  1.4133587065616242e+00 1.9969724058839617e-04 0.0000000000000000e+00  1.4090738775939471e+00 3.6494467068198312e-04 0.0000000000000000e+00  1.5000876908389631e+00 2.7286298599275843e-04 0.0000000000000000e+00  6.1566356799166289e-01 -1.5399329698303807e-07 0.0000000000000000e+00  6.1566332619266184e-01 -1.0910718780151499e-07 0.0000000000000000e+00  0.0000000000000000e+00 0.0000000000000000e+00 0.0000000000000000e+00  1.0939551198110924e+00 -2.9507367712034772e-07 0.0000000000000000e+00  1.3930570914506024e+00 -5.7767887691729562e-