<?xml version="1.0"?>
<VTKFile type="UnstructuredGrid"  version="0.1"  >
<UnstructuredGrid>
<Piece  NumberOfPoints="525" NumberOfCells="924">
<Points>
<DataArray  type="Float64"  NumberOfComponents="3"  format="ascii">0 0 0  2.2 0 0  2.2 0.41 0  0 0.41 0  0.15 0.2 0  0.25 0.2 0  0.2 0.15 0  0.2 0.25 0  0.104762 0 0  0.209524 0 0  0.314286 0 0  0.419048 0 0  0.52381 0 0  0.628571 0 0  0.733333 0 0  0.838095 0 0  0.9428569999999999 0 0  1.04762 0 0  1.15238 0 0  1.25714 0 0  1.3619 0 0  1.46667 0 0  1.57143 0 0  1.67619 0 0  1.78095 0 0  1.88571 0 0  1.99048 0 0  2.09524 0 0  2.2 0.1025 0  2.2 0.205 0  2.2 0.3075 0  2.1 0.41 0  2 0.41 0  1.9 0.41 0  1.8 0.41 0  1.7 0.41 0  1.6 0.41 0  1.5 0.41 0  1.4 0.41 0  1.3 0.41 0  1.2 0.41 0  1.1 0.41 0  1 0.41 0  0.9 0.41 0  0.8 0.41 0  0.7 0.41 0  0.6 0.41 0  0.5 0.41 0  0.4 0.41 0  0.3 0.41 0  0.2 0.41 0  0.1 0.41 0  0 0.3075 0  0 0.205 0  0 0.1025 0  0.1566987973585577 0.2250001169958213 0  0.1749998830041787 0.2433012026414423 0  0.2250001169958213 0.2433012026414423 0  0.2433012026414423 0.2250001169958213 0  0.2433012026414423 0.1749998830041787 0  0.2250001169958213 0.1566987973585577 0  0.1749998830041787 0.1566987973585577 0  0.1566987973585577 0.1749998830041787 0  0.352033 0.262216 0  1.04579 0.252253 0  1.24065 0.243419 0  0.985775 0.171509 0  1.30324 0.187395 0  0.890988 0.190768 0  1.39085 0.202767 0  0.801464 0.204685 0  1.49904 0.204666 0  0.704267 0.202289 0  1.60238 0.204951 0  0.487789 0.19191 0  1.72935 0.219637 0  1.83335 0.187427 0  2.03359 0.193642 0  0.314663 0.307348 0  0.249039 0.333583 0  2.12147 0.253405 0  2.06373 0.0836837 0  0.0734726 0.267055 0  0.143989 0.0677174 0  0.0613613 0.33781 0  0.299628 0.236829 0  0.527114 0.295386 0  0.262384 0.26549 0  0.275777 0.18341 0  1.74578 0.330928 0  1.84001 0.302448 0  1.64998 0.313838 0  0.648421 0.302367 0  1.54544 0.308508 0  0.755686 0.306156 0  1.42668 0.314809 0  0.870524 0.298596 0  1.22553 0.112785 0  1.05603 0.147372 0  0.969346 0.329867 0  1.32527 0.276284 0  2.02914 0.29511 0  1.88168 0.119486 0  1.79545 0.104842 0  1.35688 0.0892539 0  1.69041 0.105324 0  0.914199 0.09555660000000001 0  1.58234 0.102923 0  0.61843 0.10815 0  1.47999 0.101161 0  0.725217 0.104273 0  0.821727 0.102306 0  1.96725 0.105778 0  0.418624 0.241547 0  0.135226 0.239087 0  1.14921 0.314841 0  0.404508 0.333259 0  0.590155 0.206269 0  2.12554 0.150731 0  1.93166 0.22436 0  0.104689 0.190046 0  0.267856 0.07447529999999999 0  0.269368 0.221581 0  0.434446 0.114927 0  1.0089 0.07933809999999999 0  0.953023 0.246698 0  1.25853 0.33355 0  1.05268 0.340828 0  2.1369 0.067383 0  0.522398 0.112537 0  1.3421 0.348929 0  0.215186 0.289473 0  0.203197 0.335348 0  1.13984 0.190728 0  1.93813 0.330504 0  1.10505 0.0883705 0  0.341988 0.0824728 0  0.253113 0.138035 0  0.291932 0.131907 0  0.203713 0.102439 0  0.150375 0.134668 0  0.151494 0.309119 0  0.354384 0.17896 0  0.06853670000000001 0.100776 0  0.424128 0.180088 0  0.474925 0.0568661 0  2.10843 0.347669 0  2.160735 0.2804525 0  2.160735 0.2292025 0  2.2 0.25625 0  2.079485 0.04184185 0  2.027105 0.04184185 0  2.04286 0 0  0.1767565 0.0338587 0  0.1243755 0.0338587 0  0.157143 0 0  0.08068065000000001 0.373905 0  0.03068065 0.373905 0  0.05 0.41 0  0.03068065 0.322655 0  0 0.35875 0  0.281851 0.3204655 0  0.2745195 0.3717915 0  0.3073315 0.358674 0  0.06741695 0.3024325 0  0.0367363 0.2872775 0  0.3071455 0.2720885 0  0.3258305 0.2495225 0  0.333348 0.284782 0  0.2557115 0.2995365 0  0.2885235 0.286419 0  2.075305 0.2742575 0  2.031365 0.244376 0  2.07753 0.2235235 0  2.01549 0.09473085000000001 0  1.978865 0.052889 0  2.00042 0.14971 0  2.04866 0.13866285 0  0.472869 0.2684665 0  0.4532065 0.2167285 0  0.5074514999999999 0.243648 0  2.16277 0.1778655 0  2.16277 0.1266155 0  2.2 0.15375 0  1.90667 0.171923 0  1.882505 0.2058935 0  1.857515 0.1534565 0  1.885835 0.263404 0  1.83668 0.2449375 0  0.6042925 0.1572095 0  0.647211 0.204279 0  0.6613485 0.1552195 0  0.3595855 0.3203035 0  0.3782705 0.2977375 0  0.155113 0.241194 0  0.1459625 0.2320435 0  0.1646446609406726 0.2353553390593274 0  0.259539 0.179205 0  0.2628885 0.191705 0  0.2482962819455563 0.1870590127797247 0  0.281006 0.2511595 0  1.0209025 0.1594405 0  1.05091 0.1998125 0  1.0157825 0.211881 0  1.264385 0.15009 0  1.23309 0.178102 0  1.271945 0.215407 0  1.291205 0.10101945 0  1.33006 0.13832445 0  0.928528 0.0477783 0  0.876147 0.0477783 0  0.890476 0 0  0.9025935 0.1431623 0  0.9499869999999999 0.1335328 0  0.9383815 0.1811385 0  0.867963 0.0989313 0  0.8563575 0.146537 0  0.8299110000000001 0.051153 0  1.411775 0.04462695 0  1.35939 0.04462695 0  1.414285 0 0  1.373865 0.14601045 0  1.347045 0.195081 0  1.418435 0.09520745 0  1.43542 0.151964 0  1.47333 0.0505805 0  0.7775300000000001 0.051153 0  0.785714 0 0  0.8115954999999999 0.1534955 0  0.8462259999999999 0.1977265 0  0.7734719999999999 0.1032895 0  0.7633405 0.154479 0  0.729275 0.0521365 0  1.52571 0.0505805 0  1.51905 0 0  1.489515 0.1529135 0  1.444945 0.2037165 0  1.531165 0.102042 0  1.54069 0.1537945 0  1.576885 0.0514615 0  1.9804 0.259735 0  1.982625 0.209001 0  1.820005 0.356224 0  1.870005 0.356224 0  1.85 0.41 0  1.78468 0.2610425 0  1.78135 0.203532 0  1.72289 0.370464 0  1.77289 0.370464 0  1.75 0.41 0  1.792895 0.316688 0  1.737565 0.2752825 0  1.62499 0.361919 0  1.67499 0.361919 0  1.65 0.41 0  1.69788 0.322383 0  1.689665 0.2667375 0  1.62618 0.2593945 0  1.665865 0.212294 0  0.6242105 0.3561835 0  0.6742105 0.3561835 0  0.6499999999999999 0.41 0  0.6192880000000001 0.254318 0  0.6763440000000001 0.252328 0  1.52272 0.359254 0  1.57272 0.359254 0  1.55 0.41 0  1.59771 0.311173 0  1.57391 0.2567295 0  1.52224 0.256587 0  1.55071 0.2048085 0  0.727843 0.358078 0  0.7778430000000001 0.358078 0  0.75 0.41 0  0.7020535 0.3042615 0  0.7299765 0.2542225 0  0.778575 0.2554205 0  0.7528655 0.203487 0  1.41334 0.3624045 0  1.46334 0.3624045 0  1.45 0.41 0  1.48606 0.3116585 0  1.46286 0.2597375 0  1.408765 0.258788 0  0.8352619999999999 0.354298 0  0.885262 0.354298 0  0.8500000000000001 0.41 0  0.813105 0.302376 0  0.8359939999999999 0.2516405 0  0.880756 0.244682 0  0.9346730000000001 0.3699335 0  0.984673 0.3699335 0  0.95 0.41 0  0.9199349999999999 0.3142315 0  0.676894 0.0521365 0  0.680952 0 0  0.714742 0.153281 0  0.6718235 0.1062115 0  0.6235005 0.054075 0  1.629265 0.0514615 0  1.62381 0 0  1.59236 0.153937 0  1.636375 0.1041235 0  1.646395 0.1551375 0  1.6833 0.052662 0  1.73568 0.052662 0  1.72857 0 0  1.70988 0.1624805 0  1.74293 0.105083 0  1.7624 0.1622395 0  1.7882 0.052421 0  1.84058 0.052421 0  1.83333 0 0  1.8144 0.1461345 0  1.838565 0.112164 0  1.883695 0.059743 0  1.124605 0.3624205 0  1.174605 0.3624205 0  1.15 0.41 0  1.314255 0.2318395 0  1.28296 0.2598515 0  1.35806 0.2395255 0  1.375975 0.2955465 0  1.92648 0.052889 0  1.938095 0 0  1.924465 0.112632 0  1.949455 0.165069 0  0.352254 0.3716295 0  0.402254 0.3716295 0  0.35 0.41 0  0.513557 0.352693 0  0.563557 0.352693 0  0.55 0.41 0  0.5877675 0.2988765 0  0.5586344999999999 0.2508275 0  0.538972 0.1990895 0  0.452254 0.3716295 0  0.45 0.41 0  0.465811 0.3143225 0  0.411566 0.287403 0  0.3853285 0.2518815 0  0.1199575 0.2145665 0  0.0890808 0.2285505 0  0.1043493 0.253071 0  0.2245195 0.3717915 0  0.25 0.41 0  0.291071 0.03723765 0  0.23869 0.03723765 0  0.261905 0 0  0.265876 0.2435355 0  0.2563345 0.2232905 0  0.2528425 0.245245 0  0.284498 0.229205 0  1.032465 0.11335505 0  0.9973375 0.12542355 0  0.9615494999999999 0.08744735000000001 0  0.9220055 0.218733 0  0.9693989999999999 0.2091035 0  0.9611845 0.2882825 0  0.9117735 0.272647 0  1.229265 0.371775 0  1.279265 0.371775 0  1.25 0.41 0  1.02634 0.375414 0  1.07634 0.375414 0  1.05 0.41 0  1.011013 0.3353475 0  2.11607 0.0336915 0  2.16845 0.0336915 0  2.14762 0 0  2.16845 0.0849415 0  2.2 0.05125 0  2.100315 0.07553335 0  0.5562765000000001 0.159403 0  0.570414 0.1103435 0  0.5050935 0.1522235 0  1.32105 0.3794645 0  1.37105 0.3794645 0  1.35 0.41 0  1.333685 0.3126065 0  1.38439 0.331869 0  0.9994065 0.2494755 0  1.007568 0.29106 0  1.300315 0.3412395 0  1.2919 0.304917 0  2.13122 0.109057 0  2.094635 0.11720735 0  0.2725725 0.2024955 0  0.259684 0.2107905 0  0.2482962819455563 0.2129409872202754 0  0.2877025 0.2101195 0  2.123505 0.202068 0  2.079565 0.1721865 0  1.02826 0.03966905 0  0.9758784999999999 0.03966905 0  0.9952384999999999 0 0  1.049235 0.2965405 0  1.100945 0.3278345 0  1.0975 0.283547 0  0.5711200000000001 0.054075 0  0.5761905 0 0  0.523104 0.0562685 0  1.24959 0.2884845 0  1.20387 0.3241955 0  1.19493 0.27913 0  0.238785 0.2774815 0  0.2321125 0.311528 0  0.226118 0.3344655 0  0.2015985 0.3726739999999999 0  1.144525 0.2527845 0  1.190245 0.2170735 0  1.092815 0.2214905 0  0.2091915 0.3124105 0  0.220093 0.266387 0  0.243692 0.2543955 0  0.2353553390593274 0.2353553390593274 0  0.478422 0.113732 0  0.4611175 0.1534185 0  1.919065 0.370252 0  1.969065 0.370252 0  1.95 0.41 0  1.983635 0.312807 0  2.01457 0.352555 0  1.88907 0.316476 0  1.934895 0.277432 0  1.182685 0.1517565 0  1.097935 0.16905 0  1.128715 0.04418525 0  1.076335 0.04418525 0  1.1 0 0  1.056975 0.08385429999999999 0  1.08054 0.11787125 0  1.122445 0.13954925 0  1.16529 0.10057775 0  0.304922 0.07847404999999999 0  0.328137 0.0412364 0  0.380518 0.0412364 0  0.366667 0 0  0.388217 0.09869990000000001 0  0.426747 0.0574635 0  0.31696 0.1071899 0  0.279894 0.10319115 0  0.2725225 0.134971 0  0.2604845 0.10625515 0  0.228413 0.120237 0  0.2143565 0.129569 0  0.2390565 0.147367 0  1.30701 0.04462695 0  1.30952 0 0  1.241335 0.0563925 0  0.2357845 0.08845715 0  1.188955 0.0563925 0  1.20476 0 0  0.2066185 0.0512195 0  0.173851 0.08507819999999999 0  0.0367363 0.2360275 0  0 0.25625 0  0.264445 0.1607225 0  0.248207 0.1565175 0  0.2353553390593274 0.1646446609406726 0  0.2838545 0.1576585 0  0.130694 0.182523 0  0.1273445 0.195023 0  0.1517037180544437 0.1870590127797247 0  0.127532 0.162357 0  0.153537 0.154834 0  0.0523445 0.197523 0  0
[...]
<PointData  Vectors="u"> 
<DataArray  type="Float64"  Name="u"  NumberOfComponents="3" format="ascii">1.7462156914045337e-15 -1.9428455522826231e-15 0.0000000000000000e+00  0.0000000000000000e+00 0.0000000000000000e+00 0.0000000000000000e+00  0.0000000000000000e+00 0.0000000000000000e+00 0.0000000000000000e+00  5.0836656082782377e-16 0.0000000000000000e+00 0.0000000000000000e+00  0.0000000000000000e+00 0.0000000000000000e+00 0.0000000000000000e+00  0.0000000000000000e+00 0.0000000000000000e+00 0.0000000000000000e+00  0.0000000000000000e+00 4.9196374147998956e-16 0.0000000000000000e+00  0.0000000000000000e+00 0.0000000000000000e+00 0.0000000000000000e+00  0.0000000000000000e+00 4.7586983619734561e-16 0.0000000000000000e+00  0.0000000000000000e+00 -1.1406517451460012e-15 0.0000000000000000e+00  0.0000000000000000e+00 0.0000000000000000e+00 0.0000000000000000e+00  0.0000000000000000e+00 -9.0618452026568563e-16 0.0000000000000000e+00  0.0000000000000000e+00 0.0000000000000000e+00 0.0000000000000000e+00  0.0000000000000000e+00 0.0000000000000000e+00 0.0000000000000000e+00  0.0000000000000000e+00 1.1072161152063922e-15 0.0000000000000000e+00  0.0000000000000000e+00 7.3451117802033528e-16 0.0000000000000000e+00  0.0000000000000000e+00 0.0000000000000000e+00 0.0000000000000000e+00  0.0000000000000000e+00 0.0000000000000000e+00 0.0000000000000000e+00  0.0000000000000000e+00 -5.2372530465372131e-16 0.0000000000000000e+00  0.0000000000000000e+00 0.0000000000000000e+00 0.0000000000000000e+00  0.0000000000000000e+00 0.0000000000000000e+00 0.0000000000000000e+00  0.0000000000000000e+00 0.0000000000000000e+00 0.0000000000000000e+00  0.0000000000000000e+00 0.0000000000000000e+00 0.0000000000000000e+00  -1.4349704572426991e-15 -3.9578869366590388e-16 0.0000000000000000e+00  4.2363485124577945e-16 0.0000000000000000e+00 0.0000000000000000e+00  0.0000000000000000e+00 8.9118756367308807e-16 0.0000000000000000e+00  0.0000000000000000e+00 0.0000000000000000e+00 0.0000000000000000e+00  0.0000000000000000e+00 3.2965334633734177e-16 0.0000000000000000e+00  1.1250000003560685e+00 3.0578501508306786e-10 0.0000000000000000e+00  1.5000000000001437e+00 4.9660105956886880e-10 0.0000000000000000e+00  1.1249999996441591e+00 3.0534978896610316e-10 0.0000000000000000e+00  0.0000000000000000e+00 0.0000000000000000e+00 0.0000000000000000e+00  0.0000000000000000e+00 6.7549194618390569e-16 0.0000000000000000e+00  5.9324643157914174e-16 0.0000000000000000e+00 0.0000000000000000e+00  0.0000000000000000e+00 -5.3505564626778276e-16 0.0000000000000000e+00  0.0000000000000000e+00 0.0000000000000000e+00 0.0000000000000000e+00  0.0000000000000000e+00 0.0000000000000000e+00 0.0000000000000000e+00  0.0000000000000000e+00 0.0000000000000000e+00 0.0000000000000000e+00  0.0000000000000000e+00 0.0000000000000000e+00 0.0000000000000000e+00  0.0000000000000000e+00 4.9752801399722623e-16 0.0000000000000000e+00  0.0000000000000000e+00 6.9359418720546846e-16 0.0000000000000000e+00  0.0000000000000000e+00 0.0000000000000000e+00 0.0000000000000000e+00  0.0000000000000000e+00 0.0000000000000000e+00 0.0000000000000000e+00  0.0000000000000000e+00 0.0000000000000000e+00 0.0000000000000000e+00  0.0000000000000000e+00 -5.1443812614832567e-16 0.0000000000000000e+00  0.0000000000000000e+00 -5.4603158721172038e-16 0.0000000000000000e+00  0.0000000000000000e+00 4.4373878529524052e-16 0.0000000000000000e+00  0.0000000000000000e+00 0.0000000000000000e+00 0.0000000000000000e+00  3.9706106810942043e-16 0.0000000000000000e+00 0.0000000000000000e+00  0.0000000000000000e+00 -5.7962894616376627e-16 0.0000000000000000e+00  0.0000000000000000e+00 -1.3547119318613590e-15 0.0000000000000000e+00  0.0000000000000000e+00 0.0000000000000000e+00 0.0000000000000000e+00  1.1250000000000000e+00 0.0000000000000000e+00 0.0000000000000000e+00  1.5000000000000022e+00 0.0000000000000000e+00 0.0000000000000000e+00  1.1250000000000004e+00 -3.4617001484408550e-16 0.0000000000000000e+00  0.0000000000000000e+00 0.0000000000000000e+00 0.0000000000000000e+00  7.4721860555804641e-16 0.0000000000000000e+00 0.0000000000000000e+00  -4.8856925403879893e-16 4.3241623467266125e-16 0.0000000000000000e+00  0.0000000000000000e+00 0.0000000000000000e+00 0.0000000000000000e+00  0.0000000000000000e+00 0.0000000000000000e+00 0.0000000000000000e+00  0.0000000000000000e+00 4.1764433038191456e-16 0.0000000000000000e+00  0.0000000000000000e+00 0.0000000000000000e+00 0.0000000000000000e+00  7.8978425467129222e-16 0.0000000000000000e+00 0.0000000000000000e+00  1.2548548653947500e+00 -3.2729668621976998e-01 0.0000000000000000e+00  1.4202798163429566e+00 4.9589897778316122e-05 0.0000000000000000e+00  1.4473151420857855e+00 5.3366350438721323e-06 0.0000000000000000e+00  1.4599981148411947e+00 7.7626631743583097e-05 0.0000000000000000e+00  1.4889375227002080e+00 1.9360074310126595e-06 0.0000000000000000e+00  1.4928173595114906e+00 9.9769587172409598e-05 0.0000000000000000e+00  1.4998220105323858e+00 2.8325047820098850e-08 0.0000000000000000e+00  1.5000919359215568e+00 -7.7565430717562074e-05 0.0000000000000000e+00  1.4999960166029105e+00 -3.0169997844023694e-07 0.0000000000000000e+00  1.4999141417561812e+00 -1.1553195566971612e-03 0.0000000000000000e+00  1.4999999142685223e+00 -1.7381864553214986e-07 0.0000000000000000e+00  1.4590897679747199e+00 -8.1567538640407011e-03 0.0000000000000000e+00  1.4923530656796691e+00 -4.9284886788068129e-08 0.0000000000000000e+00  1.4889776195811075e+00 -1.1604594305304809e-08 0.0000000000000000e+00  1.4953954493981358e+00 7.7339969197174164e-10 0.0000000000000000e+00  1.4288321892179670e+00 -4.2950985099590977e-01 0.0000000000000000e+00  1.7558511790939622e+00 -2.7557200076234367e-01 0.0000000000000000e+00  1.4163696358128830e+00 5.9360581141151354e-10 0.0000000000000000e+00  9.7468252404377853e-01 3.7350886657329592e-10 0.0000000000000000e+00  1.2753753572885993e+00 5.6425913361297619e-01 0.0000000000000000e+00  1.5552688919099016e+00 -2.9595457501507327e-01 0.0000000000000000e+00  1.0826350699868172e+00 2.9462617805418012e-01 0.0000000000000000e+00  8.2731283671635503e-01 -4.1598041071653458e-01 0.0000000000000000e+00  1.2183625522076713e+00 -2.3624388143055109e-02 0.0000000000000000e+00  1.1318509720422651e+00 -6.1029446525438635e-01 0.0000000000000000e+00  3.4003914154804815e-01 2.2068706306779420e-01 0.0000000000000000e+00  9.3398474632202477e-01 -1.3762445762414123e-08 0.0000000000000000e+00  1.1610548733078685e+00 -5.4912933449026726e-09 0.0000000000000000e+00  1.0771906647820673e+00 -5.6372307947710382e-08 0.0000000000000000e+00  1.1628988708249914e+00 -2.1344481777570133e-03 0.0000000000000000e+00  1.1175883380941241e+00 -1.4183516337303877e-07 0.0000000000000000e+00  1.1346668830783986e+00 -7.4271055173720621e-05 0.0000000000000000e+00  1.0696131994890152e+00 -1.4878339419841018e-07 0.0000000000000000e+00  1.1871699776625755e+00 9.9177667727973882e-05 0.0000000000000000e+00  1.1964831335973545e+00 4.2275626549255049e-06 0.0000000000000000e+00  1.3814887854990561e+00 4.1351867540802208e-05 0.0000000000000000e+00  9.4340111451697506e-01 4.0854324736937806e-05 0.0000000000000000e+00  1.3186291261842300e+00 8.1234148997362730e-07 0.0000000000000000e+00  1.2101792219829293e+00 5.5791837906656648e-10 0.0000000000000000e+00  1.2389894990405188e+00 -2.8333290770670907e-09 0.0000000000000000e+00  1.1419408025151137e+00 -1.0936558637124015e-08 0.0000000000000000e+00  1.0218142078321879e+00 1.0499831048562488e-07 0.0000000000000000e+00  1.1453787200826120e+00 -4.2279781643788469e-08 0.0000000000000000e+00  1.0725892618919972e+00 4.7103168171543436e-05 0.0000000000000000e+00  1.1280885840001194e+00 -1.1222439040190175e-07 0.0000000000000000e+00  1.1638840116183009e+00 -6.3460634441852128e-04 0.0000000000000000e+00  1.1151380926095564e+00 -1.8336629713191076e-07 0.0000000000000000e+00  1.1377693661913222e+00 -4.5876924342223743e-04 0.0000000000000000e+00  1.1237267503079533e+00 -3.3031333615084644e-05 0.0000000000000000e+00  1.1486018353219345e+00 1.8277114264822674e-10 0.0000000000000000e+00  1.3677828940272072e+00 -1.0953796407993505e-01 0.0000000000000000e+00  6.0280801861592226e-01 5.4992638615266942e-01 0.0000000000000000e+00  1.0693518957179557e+00 9.0707320429951081e-06 0.0000000000000000e+00  1.0378088595381434e+00 -1.1495517171838400e-01 0.0000000000000000e+00  1.4973361732414110e+00 -6.0829159215676750e-03 0.0000000000000000e+00  1.3948795592432901e+00 5.6592714491101752e-10 0.0000000000000000e+00  1.4866219058136703e+00 -1.1989203282957237e-09 0.0000000000000000e+00  6.3119797693774760e-01 -1.0358129690096943e-01 0.0000000000000000e+00  1.5425732088238087e+00 3.2983763033283459e-01 0.0000000000000000e+00  3.1529872788493507e-01 -2.9295239723244620e-01 0.0000000000000000e+00  1.2048053267372771e+00 7.8301745218489205e-02 0.0000000000000000e+00  9.3642679016920660e-01 2.6005160895282333e-05 0.0000000000000000e+00  1.4378957233891578e+00 9.7274503935589700e-05 0.0000000000000000e+00  9.1016798820694356e-01 1.2547693639592057e-06 0.0000000000000000e+00  8.4145845374259509e-01 1.5612447512779264e-05 0.0000000000000000e+00  8.2402955357965069e-01 1.9884963960407133e-10 0.0000000000000000e+00  1.1912883626438255e+00 1.0518304075600532e-02 0.0000000000000000e+00  7.6059924213825103e-01 7.6230350589413595e-08 0.0000000000000000e+00  1.7053836335113266e+00 -1.9334158591307743e-01 0.0000000000000000e+00  1.8950613639484979e+00 -1.1159275590401935e-02 0.0000000000000000e+00  1.4927321596844347e+00 2.1499580733994342e-05 0.0000000000000000e+00  9.3778986121520735e-01 -8.2341646958119869e-11 0.0000000000000000e+00  1.0145056542163218e+00 1.3213425192903507e-05 0.0000000000000000e+00  1.1810525379014105e+00 2.5561324318945128e-01 0.0000000000000000e+00  1.0037409685214671e+00 5.5184607651357875e-01 0.0000000000000000e+00  1.1458685213034487e+00 5.4679864211667917e-01 0.0000000000000000e+00  1.7648080283494609e+00 3.6360969147994839e-02 0.0000000000000000e+00  1.0983269330889383e+00 -5.7225115089738110e-01 0.0000000000000000e+00  1.7769684159579522e+00 4.6652492612440583e-01 0.0000000000000000e+00  1.1097629257574204e+00 1.0978618101401298e-01 0.0000000000000000e+00  1.2390171048448093e+00 -4.2114303415286308e-01 0.0000000000000000e+00  1.3645103056115604e+00 2.3066328328115181e-02 0.0000000000000000e+00  7.3390446749275262e-01 1.6898148456145099e-02 0.0000000000000000e+00  7.7348803405045163e-01 1.9811122333875284e-10 0.0000000000000000e+00  1.2967966769075991e+00 4.2060300157607080e-10 0.0000000000000000e+00  1.4790924088866146e+00 5.3262099858669438e-10 0.0000000000000000e+00  1.4062499997457427e+00 4.4430809803892124e-10 0.0000000000000000e+00  5.4983050945758394e-01 1.1527160968026884e-10 0.0000000000000000e+00  5.4983050973128822e-01 1.3685962935910360e-10 0.0000000000000000e+00  0.0000000000000000e+00 0.0000000000000000e+00 0.0000000000000000e+00  1.1561036440240018e+00 -4.9563079130410997e-02 0.0000000000000000e+00  9.3223905562244658e-01 -1.0769729875446160e-01 0.0000000000000000e+00  0.0000000000000000e+00 -1.4919710915525061e-15 0.0000000000000000e+00  7.4036035482233409e-01 1.1424475181435727e-01 0.0000000000000000e+00  5.2792174084383936e-01 5.4619542962166534e-02 0.0000000000000000e+00  0.0000000000000000e+00 -1.6368880432521077e-15 0.0000000000000000e+00  1.0639835713723225e+00 2.3035747410467083e-01 0.0000000000000000e+00  6.5624999999999989e-01 0.0000000000000000e+00 0.0000000000000000e+00  1.6010683311355567e+00 -4.1485654417370221e-01 0.0000000000000000e+00  1.0907403716572963e+00 -1.0841148323089486e-01 0.0000000000000000e+00  1.1410824988429729e+00 -1.7080978852922862e-01 0.0000000000000000e+00  1.3080396878330118e+00 4.9476421453283709e-01 0.0000000000000000e+00  1.2801261166137012e+00 3.5769668547317474e-01 0.0000000000000000e+00  1.2509973322398373e+00 -5.3271401967061316e-01 0.0000000000000000e+00  1.1056938892343988e+00 -3.9329244544034142e-01 0.0000000000000000e+00  1.3246440371423835e+00 -4.1840064478235328e-01 0.0000000000000000e+00  1.6776883660344817e+00 -4.9624976472722049e-01 0.0000000000000000e+00  1.4148248899293663e+00 -5.7601809318475927e-01 0.0000000000000000e+00  1.3287947176626467e+00 6.3548974307195381e-10 0.0000000000000000e+00  1.4446590342041947e+00 7.3149362792397732e-10 0.0000000000000000e+00  1.4877530020795215e+00 7.7151168615247726e-10 0.0000000000000000e+00  1.0659981413552262e+00 4.3701166779833852e-10 0.0000000000000000e+00  6.7414314273469134e-01 1.5735987334483320e-10 0.0000000000000000e+00  1.3908869455023956e+00 5.3277079500824165e-10 0.0000000000000000e+00  1.3429285860621389e+00 6.7413192782453664e-10 0.0000000000000000e+00  1.3536132249538904e+00 -6.1464505304084011e-02 0.0000000000000000e+00  1.4320176741111774e+00 -3.9365032411231481e-02 0.0000000000000000e+00  1.4359904411294908e+00 -3.0536650800691269e-02 0.0000000000000000e+00  1.4737198898873338e+00 5.2508751870831271e-10 0.0000000000000000e+00  1.2806973291687767e+00 4.0830295538803493e-10 0.0000000000000000e+00  1.4062500002546447e+00 4.4443138957908178e-10 0.0000000000000000e+00  1.4609486760509036e+00 -2.4893470404026702e-09 0.0000000000000000e+00  1.4999715047443876e+00 -4.7659899530198135e-09 0.0000000000000000e+00  1.4051731435540480e+00 -6.5366188116686963e-09 0.0000000000000000e+00  1.3782500698796356e+00 -3.4702771886983587e-09 0.0000000000000000e+00  1.4430694639897661e+00 -1.0154470777834632e-08 0.0000000000000000e+00  1.4161013428358806e+00 -2.0968437243325234e-03 0.0000000000000000e+00  1.4997516180720596e+00 -2.8270140515090718e-03 0.0000000000000000e+00  1.4110286532744263e+00 -1.5730763790640506e-03 0.0000000000000000e+00  1.2403547790403981e+00 -2.4641715786705048e-01 0.0000000000000000e+00  1.2787349953294131e+00 -2.3913919722918181e-01 0.0000000000000000e+00  4.0853532862034625e-01 3.6547973701726422e-01 0.0000000000000000e+00  3.1726466823959143e-01 3.7927338595164334e-01 0.0000000000000000e+00  0.0000000000000000e+00 0.0000000000000000e+00 0.0000000000000000e+00  1.7775516791880644e-01 2.3116113698455640e-01 0.0000000000000000e+00  1.1246239763828023e-01 9.3338901338821376e-02 0.0000000000000000e+00  -3.6467766233409552e-16 -3.2845557777028290e-16 0.0000000000000000e+00  9.0819370188328730e-01 -5.6528176271922548e-01 0.0000000000000000e+00  1.4259431510714566e+00 5.8524637803319887e-05 0.0000000000000000e+00  1.4990427678550953e+00 5.2269028253216068e-05 0.0000000000000000e+00  1.4983066528315423e+00 6.9334571082097990e-05 0.0000000000000000e+00  1.3923825209907872e+00 3.3264499063611359e-06 0.0000000000000000e+00  1.4741769972600127e+00 6.2791254636616491e-06 0.0000000000000000e+00  1.4961340530228853e+00 3.5095022609131932e-06 0.0000000000000000e+00  1.1140887756449991e+00 1.1306802756102129e-06 0.0000000000000000e+00  1.3413219105282610e+00 7.6956041525123515e-07 0.0000000000000000e+00  6.1779664434319692e-01 1.5944684987832994e-05 0.0000000000000000e+00  6.1782395195752737e-01 1.2315664785449867e-05 0.0000000000000000e+00  0.0000000000000000e+00 -3.9290029643093701e-16 0.0000000000000000e+00  1.3636143611300198e+00 7.6582379902628473e-05 0.0000000000000000e+00  1.3177738875713187e+00 7.1210855989774699e-05 0.0000000000000000e+00  1.4797174842912006e+00 9.7935434632393650e-05 0.0000000000000000e+00  1.0985759208819199e+00 3.0838417313202480e-05 0.0000000000000000e+00  1.3781298297227293e+00 3.9682186670037470e-05 0.0000000000000000e+00  6.5530488936522080e-01 -4.4613902518267199e-06 0.0000000000000000e+00  5.8199190885018703e-01 -5.1509266938673052e-08 0.0000000000000000e+00  5.8199186420973825e-01 1.8543661660512773e-09 0.0000000000000000e+00  -3.4113456920619446e-16 0.0000000000000000e+00 0.0000000000000000e+00  1.3757962706238045e+00 1.4259994174065214e-07 0.0000000000000000e+00  1.4964882557801409e+00 6.6271567195928410e-07 0.0000000000000000e+00  1.0697412050980566e+00 -1.3364431354856940e-07 0.0000000000000000e+00  1.3996017292533931e+00 -2.2425363627417082e-07 0.0000000000000000e+00  6.4888551736906119e-01 -6.7972483610535618e-08 0.0000000000000000e+00  6.5525333213072601e-01 -5.6353854090834943e-05 0.0000000000000000e+00  0.0000000000000000e+00 2.6406166115558046e-15 0.0000000000000000e+00  1.4054554133930268e+00 -7.0809055173858367e-05 0.0000000000000000e+00  1.4981745940405229e+00 5.5826230476069481e-05 0.0000000000000000e+00  1.1308444688779309e+00 -1.8743118060472790e-04 0.0000000000000000e+00  1.4090213820633744e+00 -3.3920800014626562e-04 0.0000000000000000e+00  6.6585869000309350e-01 -1.4908500408223268e-04 0.0000000000000000e+00  6.4888562586611320e-01 -5.4379015557330032e-08 0.0000000000000000e+00  -6.0299279367379688e-16 3.6018319832132533e-16 0.0000000000000000e+00  1.4031644480303567e+00 -2.7233202339809832e-07 0.0000000000000000e+00  1.4999411938110561e+00 -2.6698778427223591e-07 0.0000000000000000e+00  1.1216410521883189e+00 -1.5459669310809603e-07 0.0000000000000000e+00  1.4064125897587414e+00 -2.2926749190050610e-07 0.0000000000000000e+00  6.5856961870104969e-01 -3.9044519604974084e-08 0.0000000000000000e+00  1.3930664991771959e+00 3.0550288318503934e-10 0.0000000000000000e+00  1.4994286257212610e+00 3.1210824616314985e-10 0.0000000000000000e+00  6.8374664669510821e-01 -2.1997340958999381e-09 0.0000000000000000e+00  6.8374664407271946e-01 -7.8953960057066831e-10 0.0000000000000000e+00  0.0000000000000000e+00 3.5868269363374000e-16 0.0000000000000000e+00  1.3878966714668441e+00 -2.0406433447145447e-08 0.0000000000000000e+00  1.4999230804292891e+00 -2.5753757957573889e-08 0.0000000000000000e+00  5.2278400191298624e-01 -5.2637325235038656e-09 0.0000000000000000e+00  5.2278399266932962e-01 -2.6097362708453023e-09 0.0000000000000000e+00  0.0000000000000000e+00 0.0000000000000000e+00 0.0000000000000000e+00  1.0547575566119938e+00 -9.3779599982932503e-09 0.0000000000000000e+00  1.3236896160584066e+00 -3.3789555971607817e-08 0.0000000000000000e+00  6.2110991321052433e-01 -2.2549878449568042e-08 0.0000000000000000e+00  6.2110987978082355e-01 -1.3420091118948233e-08 0.0000000000000000e+00  0.0000000000000000e+00 0.0000000000000000e+00 0.0000000000000000e+00  1.0081938983693552e+00 -2.9362367536053426e-08 0.0000000000000000e+00  1.3639553390759529e+00 -6.2823005540222881e-08 0.0000000000000000e+00  1.3943928709239208e+00 -1.2237732834751375e-07 0.0000000000000000e+00  1.4981010497440765e+00 -9.8927114230206124e-08 0.0000000000000000e+00  6.8549785162964627e-01 -1.1206781423242725e-03 0.0000000000000000e+00  6.8430317448081912e-01 -3.1516614101534927e-04 0.0000000000000000e+00  0.0000000000000000e+00 0.0000000000000000e+00 0.0000000000000000e+00  1.4141286680028107e+00 -5.1764160959459305e-03 0.0000000000000000e+00  1.4206048586280366e+00 -1.8212789724648354e-03 0.0000000000000000e+00  6.5070943752736454e-01 -5.5462259518965795e-08 0.0000000000000000e+00  6.5070935647964934e-01 -3.9333555209363569e-08 0.0000000000000000e+00  0.0000000000000000e+00 0.0000000000000000e+00 0.0000000000000000e+00  1.0976429883007839e+00 -9.4094691277039146e-08 0.0000000000000000e+00  1.4044876345568273e+00 -1.8705760092862857e-07 0.0000000000000000e+00  1.4050131872581844e+00 -2.4986668515339612e-07 0.0000000000000000e+00  1.4999986904244118e+00 -2.4630728001422747e-07 0.0000000000000000e+00  6.6337767063815634e-01 -2.7401312998824047e-05 0.0000000000000000e+00  6.6335046662908159e-01 3.4606854179400856e-05 0.0000000000000000e+00  0.0000000000000000e+00 0.0000000000000000e+00 0.0000000000000000e+00  1.1485820094441297e+00 -5.8905960772992635e-04 0.0000000000000000e+00  1.4137324349700298e+00 -5.6121597056065994e-04 0.0000000000000000e+00  1.4092835837643856e+00 -1.0322899581898200e-04 0.0000000000000000e+00  1.5000804831855938e+00 -4.3250558989043144e-04 0.0000000000000000e+00  6.1566336667423915e-01 -5.6975605132450095e-08 0.0000000000000000e+00  6.1566326321788611e-01 -6.3384013465152922e-08 0.0000000000000000e+00  0.0000000000000000e+00 0.0000000000000000e+00 0.0000000000000000e+00  1.0939550475030722e+00 -1.7587956259342036e-07 0.0000000000000000e+00  1.3930569842351894e+00 -2.