<?xml version="1.0"?>
<VTKFile type="UnstructuredGrid"  version="0.1"  >
<UnstructuredGrid>
<Piece  NumberOfPoints="525" NumberOfCells="924">
<Points>
<DataArray  type="Float64"  NumberOfComponents="3"  format="ascii">0 0 0  2.2 0 0  2.2 0.41 0  0 0.41 0  0.15 0.2 0  0.25 0.2 0  0.2 0.15 0  0.2 0.25 0  0.104762 0 0  0.209524 0 0  0.314286 0 0  0.419048 0 0  0.52381 0 0  0.628571 0 0  0.733333 0 0  0.838095 0 0  0.9428569999999999 0 0  1.04762 0 0  1.15238 0 0  1.25714 0 0  1.3619 0 0  1.46667 0 0  1.57143 0 0  1.67619 0 0  1.78095 0 0  1.88571 0 0  1.99048 0 0  2.09524 0 0  2.2 0.1025 0  2.2 0.205 0  2.2 0.3075 0  2.1 0.41 0  2 0.41 0  1.9 0.41 0  1.8 0.41 0  1.7 0.41 0  1.6 0.41 0  1.5 0.41 0  1.4 0.41 0  1.3 0.41 0  1.2 0.41 0  1.1 0.41 0  1 0.41 0  0.9 0.41 0  0.8 0.41 0  0.7 0.41 0  0.6 0.41 0  0.5 0.41 0  0.4 0.41 0  0.3 0.41 0  0.2 0.41 0  0.1 0.41 0  0 0.3075 0  0 0.205 0  0 0.1025 0  0.1566987973585577 0.2250001169958213 0  0.1749998830041787 0.2433012026414423 0  0.2250001169958213 0.2433012026414423 0  0.2433012026414423 0.2250001169958213 0  0.2433012026414423 0.1749998830041787 0  0.2250001169958213 0.1566987973585577 0  0.1749998830041787 0.1566987973585577 0  0.1566987973585577 0.1749998830041787 0  0.352033 0.262216 0  1.04579 0.252253 0  1.24065 0.243419 0  0.985775 0.171509 0  1.30324 0.187395 0  0.890988 0.190768 0  1.39085 0.202767 0  0.801464 0.204685 0  1.49904 0.204666 0  0.704267 0.202289 0  1.60238 0.204951 0  0.487789 0.19191 0  1.72935 0.219637 0  1.83335 0.187427 0  2.03359 0.193642 0  0.314663 0.307348 0  0.249039 0.333583 0  2.12147 0.253405 0  2.06373 0.0836837 0  0.0734726 0.267055 0  0.143989 0.0677174 0  0.0613613 0.33781 0  0.299628 0.236829 0  0.527114 0.295386 0  0.262384 0.26549 0  0.275777 0.18341 0  1.74578 0.330928 0  1.84001 0.302448 0  1.64998 0.313838 0  0.648421 0.302367 0  1.54544 0.308508 0  0.755686 0.306156 0  1.42668 0.314809 0  0.870524 0.298596 0  1.22553 0.112785 0  1.05603 0.147372 0  0.969346 0.329867 0  1.32527 0.276284 0  2.02914 0.29511 0  1.88168 0.119486 0  1.79545 0.104842 0  1.35688 0.0892539 0  1.69041 0.105324 0  0.914199 0.09555660000000001 0  1.58234 0.102923 0  0.61843 0.10815 0  1.47999 0.101161 0  0.725217 0.104273 0  0.821727 0.102306 0  1.96725 0.105778 0  0.418624 0.241547 0  0.135226 0.239087 0  1.14921 0.314841 0  0.404508 0.333259 0  0.590155 0.206269 0  2.12554 0.150731 0  1.93166 0.22436 0  0.104689 0.190046 0  0.267856 0.07447529999999999 0  0.269368 0.221581 0  0.434446 0.114927 0  1.0089 0.07933809999999999 0  0.953023 0.246698 0  1.25853 0.33355 0  1.05268 0.340828 0  2.1369 0.067383 0  0.522398 0.112537 0  1.3421 0.348929 0  0.215186 0.289473 0  0.203197 0.335348 0  1.13984 0.190728 0  1.93813 0.330504 0  1.10505 0.0883705 0  0.341988 0.0824728 0  0.253113 0.138035 0  0.291932 0.131907 0  0.203713 0.102439 0  0.150375 0.134668 0  0.151494 0.309119 0  0.354384 0.17896 0  0.06853670000000001 0.100776 0  0.424128 0.180088 0  0.474925 0.0568661 0  2.10843 0.347669 0  2.160735 0.2804525 0  2.160735 0.2292025 0  2.2 0.25625 0  2.079485 0.04184185 0  2.027105 0.04184185 0  2.04286 0 0  0.1767565 0.0338587 0  0.1243755 0.0338587 0  0.157143 0 0  0.08068065000000001 0.373905 0  0.03068065 0.373905 0  0.05 0.41 0  0.03068065 0.322655 0  0 0.35875 0  0.281851 0.3204655 0  0.2745195 0.3717915 0  0.3073315 0.358674 0  0.06741695 0.3024325 0  0.0367363 0.2872775 0  0.3071455 0.2720885 0  0.3258305 0.2495225 0  0.333348 0.284782 0  0.2557115 0.2995365 0  0.2885235 0.286419 0  2.075305 0.2742575 0  2.031365 0.244376 0  2.07753 0.2235235 0  2.01549 0.09473085000000001 0  1.978865 0.052889 0  2.00042 0.14971 0  2.04866 0.13866285 0  0.472869 0.2684665 0  0.4532065 0.2167285 0  0.5074514999999999 0.243648 0  2.16277 0.1778655 0  2.16277 0.1266155 0  2.2 0.15375 0  1.90667 0.171923 0  1.882505 0.2058935 0  1.857515 0.1534565 0  1.885835 0.263404 0  1.83668 0.2449375 0  0.6042925 0.1572095 0  0.647211 0.204279 0  0.6613485 0.1552195 0  0.3595855 0.3203035 0  0.3782705 0.2977375 0  0.155113 0.241194 0  0.1459625 0.2320435 0  0.1646446609406726 0.2353553390593274 0  0.259539 0.179205 0  0.2628885 0.191705 0  0.2482962819455563 0.1870590127797247 0  0.281006 0.2511595 0  1.0209025 0.1594405 0  1.05091 0.1998125 0  1.0157825 0.211881 0  1.264385 0.15009 0  1.23309 0.178102 0  1.271945 0.215407 0  1.291205 0.10101945 0  1.33006 0.13832445 0  0.928528 0.0477783 0  0.876147 0.0477783 0  0.890476 0 0  0.9025935 0.1431623 0  0.9499869999999999 0.1335328 0  0.9383815 0.1811385 0  0.867963 0.0989313 0  0.8563575 0.146537 0  0.8299110000000001 0.051153 0  1.411775 0.04462695 0  1.35939 0.04462695 0  1.414285 0 0  1.373865 0.14601045 0  1.347045 0.195081 0  1.418435 0.09520745 0  1.43542 0.151964 0  1.47333 0.0505805 0  0.7775300000000001 0.051153 0  0.785714 0 0  0.8115954999999999 0.1534955 0  0.8462259999999999 0.1977265 0  0.7734719999999999 0.1032895 0  0.7633405 0.154479 0  0.729275 0.0521365 0  1.52571 0.0505805 0  1.51905 0 0  1.489515 0.1529135 0  1.444945 0.2037165 0  1.531165 0.102042 0  1.54069 0.1537945 0  1.576885 0.0514615 0  1.9804 0.259735 0  1.982625 0.209001 0  1.820005 0.356224 0  1.870005 0.356224 0  1.85 0.41 0  1.78468 0.2610425 0  1.78135 0.203532 0  1.72289 0.370464 0  1.77289 0.370464 0  1.75 0.41 0  1.792895 0.316688 0  1.737565 0.2752825 0  1.62499 0.361919 0  1.67499 0.361919 0  1.65 0.41 0  1.69788 0.322383 0  1.689665 0.2667375 0  1.62618 0.2593945 0  1.665865 0.212294 0  0.6242105 0.3561835 0  0.6742105 0.3561835 0  0.6499999999999999 0.41 0  0.6192880000000001 0.254318 0  0.6763440000000001 0.252328 0  1.52272 0.359254 0  1.57272 0.359254 0  1.55 0.41 0  1.59771 0.311173 0  1.57391 0.2567295 0  1.52224 0.256587 0  1.55071 0.2048085 0  0.727843 0.358078 0  0.7778430000000001 0.358078 0  0.75 0.41 0  0.7020535 0.3042615 0  0.7299765 0.2542225 0  0.778575 0.2554205 0  0.7528655 0.203487 0  1.41334 0.3624045 0  1.46334 0.3624045 0  1.45 0.41 0  1.48606 0.3116585 0  1.46286 0.2597375 0  1.408765 0.258788 0  0.8352619999999999 0.354298 0  0.885262 0.354298 0  0.8500000000000001 0.41 0  0.813105 0.302376 0  0.8359939999999999 0.2516405 0  0.880756 0.244682 0  0.9346730000000001 0.3699335 0  0.984673 0.3699335 0  0.95 0.41 0  0.9199349999999999 0.3142315 0  0.676894 0.0521365 0  0.680952 0 0  0.714742 0.153281 0  0.6718235 0.1062115 0  0.6235005 0.054075 0  1.629265 0.0514615 0  1.62381 0 0  1.59236 0.153937 0  1.636375 0.1041235 0  1.646395 0.1551375 0  1.6833 0.052662 0  1.73568 0.052662 0  1.72857 0 0  1.70988 0.1624805 0  1.74293 0.105083 0  1.7624 0.1622395 0  1.7882 0.052421 0  1.84058 0.052421 0  1.83333 0 0  1.8144 0.1461345 0  1.838565 0.112164 0  1.883695 0.059743 0  1.124605 0.3624205 0  1.174605 0.3624205 0  1.15 0.41 0  1.314255 0.2318395 0  1.28296 0.2598515 0  1.35806 0.2395255 0  1.375975 0.2955465 0  1.92648 0.052889 0  1.938095 0 0  1.924465 0.112632 0  1.949455 0.165069 0  0.352254 0.3716295 0  0.402254 0.3716295 0  0.35 0.41 0  0.513557 0.352693 0  0.563557 0.352693 0  0.55 0.41 0  0.5877675 0.2988765 0  0.5586344999999999 0.2508275 0  0.538972 0.1990895 0  0.452254 0.3716295 0  0.45 0.41 0  0.465811 0.3143225 0  0.411566 0.287403 0  0.3853285 0.2518815 0  0.1199575 0.2145665 0  0.0890808 0.2285505 0  0.1043493 0.253071 0  0.2245195 0.3717915 0  0.25 0.41 0  0.291071 0.03723765 0  0.23869 0.03723765 0  0.261905 0 0  0.265876 0.2435355 0  0.2563345 0.2232905 0  0.2528425 0.245245 0  0.284498 0.229205 0  1.032465 0.11335505 0  0.9973375 0.12542355 0  0.9615494999999999 0.08744735000000001 0  0.9220055 0.218733 0  0.9693989999999999 0.2091035 0  0.9611845 0.2882825 0  0.9117735 0.272647 0  1.229265 0.371775 0  1.279265 0.371775 0  1.25 0.41 0  1.02634 0.375414 0  1.07634 0.375414 0  1.05 0.41 0  1.011013 0.3353475 0  2.11607 0.0336915 0  2.16845 0.0336915 0  2.14762 0 0  2.16845 0.0849415 0  2.2 0.05125 0  2.100315 0.07553335 0  0.5562765000000001 0.159403 0  0.570414 0.1103435 0  0.5050935 0.1522235 0  1.32105 0.3794645 0  1.37105 0.3794645 0  1.35 0.41 0  1.333685 0.3126065 0  1.38439 0.331869 0  0.9994065 0.2494755 0  1.007568 0.29106 0  1.300315 0.3412395 0  1.2919 0.304917 0  2.13122 0.109057 0  2.094635 0.11720735 0  0.2725725 0.2024955 0  0.259684 0.2107905 0  0.2482962819455563 0.2129409872202754 0  0.2877025 0.2101195 0  2.123505 0.202068 0  2.079565 0.1721865 0  1.02826 0.03966905 0  0.9758784999999999 0.03966905 0  0.9952384999999999 0 0  1.049235 0.2965405 0  1.100945 0.3278345 0  1.0975 0.283547 0  0.5711200000000001 0.054075 0  0.5761905 0 0  0.523104 0.0562685 0  1.24959 0.2884845 0  1.20387 0.3241955 0  1.19493 0.27913 0  0.238785 0.2774815 0  0.2321125 0.311528 0  0.226118 0.3344655 0  0.2015985 0.3726739999999999 0  1.144525 0.2527845 0  1.190245 0.2170735 0  1.092815 0.2214905 0  0.2091915 0.3124105 0  0.220093 0.266387 0  0.243692 0.2543955 0  0.2353553390593274 0.2353553390593274 0  0.478422 0.113732 0  0.4611175 0.1534185 0  1.919065 0.370252 0  1.969065 0.370252 0  1.95 0.41 0  1.983635 0.312807 0  2.01457 0.352555 0  1.88907 0.316476 0  1.934895 0.277432 0  1.182685 0.1517565 0  1.097935 0.16905 0  1.128715 0.04418525 0  1.076335 0.04418525 0  1.1 0 0  1.056975 0.08385429999999999 0  1.08054 0.11787125 0  1.122445 0.13954925 0  1.16529 0.10057775 0  0.304922 0.07847404999999999 0  0.328137 0.0412364 0  0.380518 0.0412364 0  0.366667 0 0  0.388217 0.09869990000000001 0  0.426747 0.0574635 0  0.31696 0.1071899 0  0.279894 0.10319115 0  0.2725225 0.134971 0  0.2604845 0.10625515 0  0.228413 0.120237 0  0.2143565 0.129569 0  0.2390565 0.147367 0  1.30701 0.04462695 0  1.30952 0 0  1.241335 0.0563925 0  0.2357845 0.08845715 0  1.188955 0.0563925 0  1.20476 0 0  0.2066185 0.0512195 0  0.173851 0.08507819999999999 0  0.0367363 0.2360275 0  0 0.25625 0  0.264445 0.1607225 0  0.248207 0.1565175 0  0.2353553390593274 0.1646446609406726 0  0.2838545 0.1576585 0  0.130694 0.182523 0  0.1273445 0.195023 0  0.1517037180544437 0.1870590127797247 0  0.127532 0.162357 0  0.153537 0.154834 0  0.0523445 0.197523 0  0
[...]
<PointData  Vectors="u"> 
<DataArray  type="Float64"  Name="u"  NumberOfComponents="3" format="ascii">-1.0493916996720296e-14 1.1971001120298464e-14 0.0000000000000000e+00  0.0000000000000000e+00 0.0000000000000000e+00 0.0000000000000000e+00  0.0000000000000000e+00 0.0000000000000000e+00 0.0000000000000000e+00  4.4733448144267434e-16 0.0000000000000000e+00 0.0000000000000000e+00  0.0000000000000000e+00 0.0000000000000000e+00 0.0000000000000000e+00  0.0000000000000000e+00 0.0000000000000000e+00 0.0000000000000000e+00  0.0000000000000000e+00 6.5164886309911250e-16 0.0000000000000000e+00  0.0000000000000000e+00 0.0000000000000000e+00 0.0000000000000000e+00  0.0000000000000000e+00 3.4256596559513447e-16 0.0000000000000000e+00  0.0000000000000000e+00 8.1769787390896469e-16 0.0000000000000000e+00  0.0000000000000000e+00 -3.0189584470076612e-16 0.0000000000000000e+00  0.0000000000000000e+00 0.0000000000000000e+00 0.0000000000000000e+00  0.0000000000000000e+00 3.1283853146867706e-16 0.0000000000000000e+00  0.0000000000000000e+00 1.6579449127237507e-15 0.0000000000000000e+00  0.0000000000000000e+00 7.9315501607055403e-16 0.0000000000000000e+00  0.0000000000000000e+00 3.7154333510051701e-16 0.0000000000000000e+00  0.0000000000000000e+00 -1.4745517822514569e-15 0.0000000000000000e+00  0.0000000000000000e+00 0.0000000000000000e+00 0.0000000000000000e+00  0.0000000000000000e+00 -1.2464583295593502e-15 0.0000000000000000e+00  0.0000000000000000e+00 0.0000000000000000e+00 0.0000000000000000e+00  0.0000000000000000e+00 0.0000000000000000e+00 0.0000000000000000e+00  0.0000000000000000e+00 0.0000000000000000e+00 0.0000000000000000e+00  0.0000000000000000e+00 0.0000000000000000e+00 0.0000000000000000e+00  0.0000000000000000e+00 0.0000000000000000e+00 0.0000000000000000e+00  0.0000000000000000e+00 0.0000000000000000e+00 0.0000000000000000e+00  0.0000000000000000e+00 0.0000000000000000e+00 0.0000000000000000e+00  0.0000000000000000e+00 0.0000000000000000e+00 0.0000000000000000e+00  0.0000000000000000e+00 -3.1643917089980174e-16 0.0000000000000000e+00  1.1250000003572180e+00 3.0519689028367879e-10 0.0000000000000000e+00  1.5000000000001559e+00 4.9556000756128372e-10 0.0000000000000000e+00  1.1249999996430109e+00 3.0476025938968434e-10 0.0000000000000000e+00  0.0000000000000000e+00 0.0000000000000000e+00 0.0000000000000000e+00  0.0000000000000000e+00 -6.7782163488183361e-16 0.0000000000000000e+00  0.0000000000000000e+00 -3.8608187306617234e-16 0.0000000000000000e+00  0.0000000000000000e+00 0.0000000000000000e+00 0.0000000000000000e+00  0.0000000000000000e+00 0.0000000000000000e+00 0.0000000000000000e+00  0.0000000000000000e+00 0.0000000000000000e+00 0.0000000000000000e+00  0.0000000000000000e+00 0.0000000000000000e+00 0.0000000000000000e+00  0.0000000000000000e+00 0.0000000000000000e+00 0.0000000000000000e+00  0.0000000000000000e+00 0.0000000000000000e+00 0.0000000000000000e+00  0.0000000000000000e+00 0.0000000000000000e+00 0.0000000000000000e+00  0.0000000000000000e+00 0.0000000000000000e+00 0.0000000000000000e+00  0.0000000000000000e+00 8.4398571677864963e-16 0.0000000000000000e+00  0.0000000000000000e+00 -3.3227041768154845e-16 0.0000000000000000e+00  0.0000000000000000e+00 0.0000000000000000e+00 0.0000000000000000e+00  0.0000000000000000e+00 7.3819439826064440e-16 0.0000000000000000e+00  0.0000000000000000e+00 0.0000000000000000e+00 0.0000000000000000e+00  0.0000000000000000e+00 0.0000000000000000e+00 0.0000000000000000e+00  0.0000000000000000e+00 0.0000000000000000e+00 0.0000000000000000e+00  0.0000000000000000e+00 -6.1938021912220447e-16 0.0000000000000000e+00  0.0000000000000000e+00 1.8590244874107376e-15 0.0000000000000000e+00  0.0000000000000000e+00 0.0000000000000000e+00 0.0000000000000000e+00  1.1250000000000011e+00 0.0000000000000000e+00 0.0000000000000000e+00  1.5000000000000018e+00 0.0000000000000000e+00 0.0000000000000000e+00  1.1250000000000013e+00 6.1075154045112917e-16 0.0000000000000000e+00  0.0000000000000000e+00 0.0000000000000000e+00 0.0000000000000000e+00  -9.8961773427271650e-16 0.0000000000000000e+00 0.0000000000000000e+00  0.0000000000000000e+00 -4.5426482369040908e-16 0.0000000000000000e+00  0.0000000000000000e+00 0.0000000000000000e+00 0.0000000000000000e+00  0.0000000000000000e+00 0.0000000000000000e+00 0.0000000000000000e+00  -1.2529658917491711e-15 -3.3179893599227710e-16 0.0000000000000000e+00  0.0000000000000000e+00 0.0000000000000000e+00 0.0000000000000000e+00  -1.0321308550596250e-15 0.0000000000000000e+00 0.0000000000000000e+00  1.2548574558423986e+00 -3.2711887111554794e-01 0.0000000000000000e+00  1.4202797912035414e+00 4.9582691115922372e-05 0.0000000000000000e+00  1.4473151333900842e+00 5.3573713652070266e-06 0.0000000000000000e+00  1.4599981106683977e+00 7.7503556985794651e-05 0.0000000000000000e+00  1.4889375249013794e+00 1.9492809536126064e-06 0.0000000000000000e+00  1.4928172843382528e+00 9.9032015560444165e-05 0.0000000000000000e+00  1.4998220106284827e+00 3.3730242227333951e-08 0.0000000000000000e+00  1.5000919104308161e+00 -7.9917918039571460e-05 0.0000000000000000e+00  1.4999960166057897e+00 -3.0050104168476863e-07 0.0000000000000000e+00  1.4999141247100123e+00 -1.1614049012217945e-03 0.0000000000000000e+00  1.4999999142682983e+00 -1.7372897853129687e-07 0.0000000000000000e+00  1.4591076300559387e+00 -8.1631237578718256e-03 0.0000000000000000e+00  1.4923530656980528e+00 -4.9375378616625181e-08 0.0000000000000000e+00  1.4889776195716304e+00 -1.1657447615965301e-08 0.0000000000000000e+00  1.4953954493977435e+00 7.6719712591660588e-10 0.0000000000000000e+00  1.4286684262913878e+00 -4.2940890300272866e-01 0.0000000000000000e+00  1.7556439817495186e+00 -2.7561033900821963e-01 0.0000000000000000e+00  1.4163696358127613e+00 5.9200570173751726e-10 0.0000000000000000e+00  9.7468252404306721e-01 3.7208918960566549e-10 0.0000000000000000e+00  1.2753156720589702e+00 5.6419612318476520e-01 0.0000000000000000e+00  1.5555557955336101e+00 -2.9601039153848674e-01 0.0000000000000000e+00  1.0826400107294705e+00 2.9463112978478334e-01 0.0000000000000000e+00  8.2732642854360527e-01 -4.1572939326723191e-01 0.0000000000000000e+00  1.2183767317154715e+00 -2.3621578532298199e-02 0.0000000000000000e+00  1.1316695056009822e+00 -6.1020007758486572e-01 0.0000000000000000e+00  3.4023801911389456e-01 2.2104426380420819e-01 0.0000000000000000e+00  9.3398474640689122e-01 -1.3798419147595602e-08 0.0000000000000000e+00  1.1610548733434864e+00 -5.5210860030225928e-09 0.0000000000000000e+00  1.0771906649248126e+00 -5.6411325496847884e-08 0.0000000000000000e+00  1.1629058140675814e+00 -2.1389372792876699e-03 0.0000000000000000e+00  1.1175883381009779e+00 -1.4161573678689910e-07 0.0000000000000000e+00  1.1346691635164552e+00 -7.6297727777069313e-05 0.0000000000000000e+00  1.0696131980007366e+00 -1.4721519529172154e-07 0.0000000000000000e+00  1.1871703840850993e+00 9.8597665677715348e-05 0.0000000000000000e+00  1.1964831525481090e+00 4.2431691393537534e-06 0.0000000000000000e+00  1.3814888165897901e+00 4.1356265549153882e-05 0.0000000000000000e+00  9.4340110585577108e-01 4.0798336356417428e-05 0.0000000000000000e+00  1.3186291203938652e+00 8.2059187379318165e-07 0.0000000000000000e+00  1.2101792219852510e+00 5.5397208735419313e-10 0.0000000000000000e+00  1.2389894990190715e+00 -2.8568511199471516e-09 0.0000000000000000e+00  1.1419408024595290e+00 -1.0976727619815625e-08 0.0000000000000000e+00  1.0218142121635727e+00 1.0835534913093911e-07 0.0000000000000000e+00  1.1453787199635548e+00 -4.2337086939113295e-08 0.0000000000000000e+00  1.0725891198940529e+00 4.6881778482366963e-05 0.0000000000000000e+00  1.1280885838949219e+00 -1.1215123275062064e-07 0.0000000000000000e+00  1.1638742157410402e+00 -6.4285016621512406e-04 0.0000000000000000e+00  1.1151380931080734e+00 -1.8258475510112245e-07 0.0000000000000000e+00  1.1377660215359120e+00 -4.6168196220908636e-04 0.0000000000000000e+00  1.1237258310400193e+00 -3.3979274822211599e-05 0.0000000000000000e+00  1.1486018353148515e+00 1.7493286601706153e-10 0.0000000000000000e+00  1.3678297022216990e+00 -1.0946900225926370e-01 0.0000000000000000e+00  6.0247186490462079e-01 5.4952592627259844e-01 0.0000000000000000e+00  1.0693518592123228e+00 9.0887853776590000e-06 0.0000000000000000e+00  1.0377741097321709e+00 -1.1490881919764770e-01 0.0000000000000000e+00  1.4973393602948284e+00 -6.0944336825799706e-03 0.0000000000000000e+00  1.3948795592434937e+00 5.6446620266339010e-10 0.0000000000000000e+00  1.4866219058171268e+00 -1.2201182932679217e-09 0.0000000000000000e+00  6.3109537239156388e-01 -1.0394274304151351e-01 0.0000000000000000e+00  1.5426709189622325e+00 3.2999587490852578e-01 0.0000000000000000e+00  3.1529716079836873e-01 -2.9279232323061999e-01 0.0000000000000000e+00  1.2047877043097264e+00 7.8277345153185018e-02 0.0000000000000000e+00  9.3642683710192220e-01 2.5992486808780615e-05 0.0000000000000000e+00  1.4378957557982344e+00 9.7031543386613158e-05 0.0000000000000000e+00  9.1016797458397769e-01 1.2616974490316639e-06 0.0000000000000000e+00  8.4145839936888045e-01 1.5618301451234829e-05 0.0000000000000000e+00  8.2402955358036045e-01 1.9847778599934973e-10 0.0000000000000000e+00  1.1912700079240521e+00 1.0500538944798240e-02 0.0000000000000000e+00  7.6059923774248761e-01 7.8324717033274380e-08 0.0000000000000000e+00  1.7049985620886623e+00 -1.9344329104618890e-01 0.0000000000000000e+00  1.8949109031152853e+00 -1.1229869095129659e-02 0.0000000000000000e+00  1.4927321666208868e+00 2.1532249860792470e-05 0.0000000000000000e+00  9.3778986122543018e-01 -8.9386056769720407e-11 0.0000000000000000e+00  1.0145057016236652e+00 1.3229921319570805e-05 0.0000000000000000e+00  1.1810138937841788e+00 2.5563536055252278e-01 0.0000000000000000e+00  1.0040325412226387e+00 5.5221586633669695e-01 0.0000000000000000e+00  1.1460509710883042e+00 5.4706939934929344e-01 0.0000000000000000e+00  1.7651240142725497e+00 3.6506574058185193e-02 0.0000000000000000e+00  1.0984095942347663e+00 -5.7235737272487397e-01 0.0000000000000000e+00  1.7768369959722832e+00 4.6642238185634893e-01 0.0000000000000000e+00  1.1099112127563207e+00 1.0990996727505575e-01 0.0000000000000000e+00  1.2390904967977301e+00 -4.2133199578187958e-01 0.0000000000000000e+00  1.3645611101639714e+00 2.3081731614043428e-02 0.0000000000000000e+00  7.3386854866371753e-01 1.6885987445169576e-02 0.0000000000000000e+00  7.7348803405005451e-01 1.9768304574857312e-10 0.0000000000000000e+00  1.2967966769069468e+00 4.1972761944159157e-10 0.0000000000000000e+00  1.4790924088864064e+00 5.3144067222895289e-10 0.0000000000000000e+00  1.4062499997450832e+00 4.4339638787469087e-10 0.0000000000000000e+00  5.4983050945765166e-01 1.1497644265158154e-10 0.0000000000000000e+00  5.4983050973022074e-01 1.3618843397918259e-10 0.0000000000000000e+00  0.0000000000000000e+00 4.7285442158315704e-16 0.0000000000000000e+00  1.1563097416343686e+00 -4.9548968145055529e-02 0.0000000000000000e+00  9.3241925691086236e-01 -1.0772621755748349e-01 0.0000000000000000e+00  0.0000000000000000e+00 9.6888888807326744e-16 0.0000000000000000e+00  7.4037064207387837e-01 1.1424538564618100e-01 0.0000000000000000e+00  5.2792588672139784e-01 5.4624348393135902e-02 0.0000000000000000e+00  0.0000000000000000e+00 -6.4376669102739796e-16 0.0000000000000000e+00  1.0639854646574758e+00 2.3037007344573388e-01 0.0000000000000000e+00  6.5624999999999978e-01 0.0000000000000000e+00 0.0000000000000000e+00  1.6008464226257968e+00 -4.1483048845124065e-01 0.0000000000000000e+00  1.0906281860506088e+00 -1.0841653630383132e-01 0.0000000000000000e+00  1.1409502896301078e+00 -1.7079228576189695e-01 0.0000000000000000e+00  1.3080251746573961e+00 4.9475303788504565e-01 0.0000000000000000e+00  1.2801204458057194e+00 3.5770322276980615e-01 0.0000000000000000e+00  1.2508844957762213e+00 -5.3253284467835971e-01 0.0000000000000000e+00  1.1057039880506410e+00 -3.9306351784548449e-01 0.0000000000000000e+00  1.3245569349208925e+00 -4.1824136645812482e-01 0.0000000000000000e+00  1.6773939008134853e+00 -4.9625176671909554e-01 0.0000000000000000e+00  1.4146203021231722e+00 -5.7590539502201499e-01 0.0000000000000000e+00  1.3287947176632509e+00 6.3291513201915485e-10 0.0000000000000000e+00  1.4446590342055705e+00 7.2561517533607008e-10 0.0000000000000000e+00  1.4877530020797323e+00 7.6819403864930589e-10 0.0000000000000000e+00  1.0659981413522408e+00 4.3348224598502664e-10 0.0000000000000000e+00  6.7414314273069242e-01 1.5528424452531214e-10 0.0000000000000000e+00  1.3908869454992192e+00 5.2470006414609012e-10 0.0000000000000000e+00  1.3429285860608027e+00 6.7026994082861520e-10 0.0000000000000000e+00  1.3536342893115965e+00 -6.1441120800040327e-02 0.0000000000000000e+00  1.4320559703231146e+00 -3.9344082959230718e-02 0.0000000000000000e+00  1.4360095153531152e+00 -3.0533697091343494e-02 0.0000000000000000e+00  1.4737198898875896e+00 5.2393717426517108e-10 0.0000000000000000e+00  1.2806973291694754e+00 4.0746487953787165e-10 0.0000000000000000e+00  1.4062500002553124e+00 4.4352342776946262e-10 0.0000000000000000e+00  1.4609486760430870e+00 -2.5157515723685629e-09 0.0000000000000000e+00  1.4999715047446991e+00 -4.8013981607470546e-09 0.0000000000000000e+00  1.4051731435338792e+00 -6.5750387167815781e-09 0.0000000000000000e+00  1.3782500698958986e+00 -3.4987856158365014e-09 0.0000000000000000e+00  1.4430694640097594e+00 -1.0202809674883538e-08 0.0000000000000000e+00  1.4160961889365027e+00 -2.1088809933857713e-03 0.0000000000000000e+00  1.4997523282376681e+00 -2.8361569996884013e-03 0.0000000000000000e+00  1.4110247429008800e+00 -1.5810648638339387e-03 0.0000000000000000e+00  1.2402694046359135e+00 -2.4633309609436102e-01 0.0000000000000000e+00  1.2786971780525003e+00 -2.3903550642317153e-01 0.0000000000000000e+00  4.0819541850006685e-01 3.6514674925014073e-01 0.0000000000000000e+00  3.1698767985095783e-01 3.7889907843066306e-01 0.0000000000000000e+00  0.0000000000000000e+00 0.0000000000000000e+00 0.0000000000000000e+00  1.7789082306725068e-01 2.3142539734609602e-01 0.0000000000000000e+00  1.1253880387740822e-01 9.3557337657814724e-02 0.0000000000000000e+00  0.0000000000000000e+00 0.0000000000000000e+00 0.0000000000000000e+00  9.0811042596850333e-01 -5.6510693109800814e-01 0.0000000000000000e+00  1.4259431679511076e+00 5.8486318787171698e-05 0.0000000000000000e+00  1.4990427700290681e+00 5.2264100378292151e-05 0.0000000000000000e+00  1.4983066493008361e+00 6.9276906716714669e-05 0.0000000000000000e+00  1.3923825303951893e+00 3.3424641049160441e-06 0.0000000000000000e+00  1.4741770039313966e+00 6.3017597421048917e-06 0.0000000000000000e+00  1.4961340512164549e+00 3.5270531745698218e-06 0.0000000000000000e+00  1.1140887856273012e+00 1.1386219580409572e-06 0.0000000000000000e+00  1.3413219157742331e+00 7.7772671955245630e-07 0.0000000000000000e+00  6.1779662243933442e-01 1.5899458542710927e-05 0.0000000000000000e+00  6.1782376655054916e-01 1.2201257752487306e-05 0.0000000000000000e+00  0.0000000000000000e+00 -1.3004387235463736e-15 0.0000000000000000e+00  1.3636141729813960e+00 7.6092364099839636e-05 0.0000000000000000e+00  1.3177738358522140e+00 7.1013465287456844e-05 0.0000000000000000e+00  1.4797174436847067e+00 9.7598114733681414e-05 0.0000000000000000e+00  1.0985755058528357e+00 3.0355765044059082e-05 0.0000000000000000e+00  1.3781293961970189e+00 3.8703428406307687e-05 0.0000000000000000e+00  6.5530436832991235e-01 -4.7159692818443725e-06 0.0000000000000000e+00  5.8199190996059824e-01 -5.1014220196466665e-08 0.0000000000000000e+00  5.8199186686585003e-01 2.8136736035028272e-09 0.0000000000000000e+00  3.0843331814355057e-16 0.0000000000000000e+00 0.0000000000000000e+00  1.3757962733552693e+00 1.4799189306558462e-07 0.0000000000000000e+00  1.4964882565256237e+00 6.7145597314146436e-07 0.0000000000000000e+00  1.0697412068187597e+00 -1.3189402072799006e-07 0.0000000000000000e+00  1.3996017302450623e+00 -2.2163984598655109e-07 0.0000000000000000e+00  6.4888551766032154e-01 -6.7726957475559089e-08 0.0000000000000000e+00  6.5525211905945557e-01 -5.6849918741511082e-05 0.0000000000000000e+00  0.0000000000000000e+00 -6.0306221028445356e-16 0.0000000000000000e+00  1.4054546313614937e+00 -7.2609966440307050e-05 0.0000000000000000e+00  1.4981745053053290e+00 5.4454918453744547e-05 0.0000000000000000e+00  1.1308426345909206e+00 -1.8914149988740991e-04 0.0000000000000000e+00  1.4090199456242181e+00 -3.4231156630097382e-04 0.0000000000000000e+00  6.6585629788763756e-01 -1.4997593849544303e-04 0.0000000000000000e+00  6.4888562583645593e-01 -5.4290804314572297e-08 0.0000000000000000e+00  7.1579464772490108e-16 0.0000000000000000e+00 0.0000000000000000e+00  1.4031644483613437e+00 -2.7115056912943732e-07 0.0000000000000000e+00  1.4999411938369909e+00 -2.6427466228840047e-07 0.0000000000000000e+00  1.1216410522483153e+00 -1.5428984933417715e-07 0.0000000000000000e+00  1.4064125898101467e+00 -2.2880481124531227e-07 0.0000000000000000e+00  6.5856961856846741e-01 -3.9028532105795171e-08 0.0000000000000000e+00  1.3930664991815767e+00 2.9508172695544149e-10 0.0000000000000000e+00  1.4994286257216292e+00 3.0005936006755247e-10 0.0000000000000000e+00  6.8374664673071539e-01 -2.2114360818931706e-09 0.0000000000000000e+00  6.8374664409276642e-01 -7.9701972782489057e-10 0.0000000000000000e+00  0.0000000000000000e+00 0.0000000000000000e+00 0.0000000000000000e+00  1.3878966715099497e+00 -2.0470241003659151e-08 0.0000000000000000e+00  1.4999230804280974e+00 -2.5829237956274203e-08 0.0000000000000000e+00  5.2278400198461028e-01 -5.2765754661426333e-09 0.0000000000000000e+00  5.2278399271566012e-01 -2.6194619758822483e-09 0.0000000000000000e+00  0.0000000000000000e+00 0.0000000000000000e+00 0.0000000000000000e+00  1.0547575566696463e+00 -9.4129143116277561e-09 0.0000000000000000e+00  1.3236896161321536e+00 -3.3861355736899201e-08 0.0000000000000000e+00  6.2110991334860699e-01 -2.2562128296748121e-08 0.0000000000000000e+00  6.2110987989339594e-01 -1.3439265532137255e-08 0.0000000000000000e+00  0.0000000000000000e+00 0.0000000000000000e+00 0.0000000000000000e+00  1.0081938984883947e+00 -2.9409000830518186e-08 0.0000000000000000e+00  1.3639553391629331e+00 -6.2898661934469142e-08 0.0000000000000000e+00  1.3943928710064128e+00 -1.2238238027421778e-07 0.0000000000000000e+00  1.4981010497558072e+00 -9.8995520180664452e-08 0.0000000000000000e+00  6.8550462362743758e-01 -1.1222149990764796e-03 0.0000000000000000e+00  6.8430759052928081e-01 -3.1649346000005443e-04 0.0000000000000000e+00  0.0000000000000000e+00 0.0000000000000000e+00 0.0000000000000000e+00  1.4141353771073104e+00 -5.1843004463419003e-03 0.0000000000000000e+00  1.4206085152644732e+00 -1.8275831158545981e-03 0.0000000000000000e+00  6.5070943754638710e-01 -5.5368531384257943e-08 0.0000000000000000e+00  6.5070935660834184e-01 -3.9314435333715477e-08 0.0000000000000000e+00  0.0000000000000000e+00 0.0000000000000000e+00 0.0000000000000000e+00  1.0976429884303740e+00 -9.4066674303669888e-08 0.0000000000000000e+00  1.4044876345876909e+00 -1.8685592853703016e-07 0.0000000000000000e+00  1.4050131871320264e+00 -2.4919922748590536e-07 0.0000000000000000e+00  1.4999986904240719e+00 -2.4586062723210334e-07 0.0000000000000000e+00  6.6338009145209709e-01 -2.8244830995519574e-05 0.0000000000000000e+00  6.6335173034360262e-01 3.4092103860416522e-05 0.0000000000000000e+00  0.0000000000000000e+00 0.0000000000000000e+00 0.0000000000000000e+00  1.1485861910334341e+00 -5.9233483844549763e-04 0.0000000000000000e+00  1.4137345075467649e+00 -5.6538567014867674e-04 0.0000000000000000e+00  1.4092847436379399e+00 -1.0583479630488559e-04 0.0000000000000000e+00  1.5000804357624877e+00 -4.3642536343455382e-04 0.0000000000000000e+00  6.1566336552863865e-01 -5.6430249456465181e-08 0.0000000000000000e+00  6.1566326285089379e-01 -6.3125344659604125e-08 0.0000000000000000e+00  0.0000000000000000e+00 0.0000000000000000e+00 0.0000000000000000e+00  1.0939550470831718e+00 -1.7520483820290463e-07 0.0000000000000000e+00  1.3930569836242273e+00 -2.645