<?xml version="1.0"?>
<VTKFile type="UnstructuredGrid"  version="0.1"  >
<UnstructuredGrid>
<Piece  NumberOfPoints="525" NumberOfCells="924">
<Points>
<DataArray  type="Float64"  NumberOfComponents="3"  format="ascii">0 0 0  2.2 0 0  2.2 0.41 0  0 0.41 0  0.15 0.2 0  0.25 0.2 0  0.2 0.15 0  0.2 0.25 0  0.104762 0 0  0.209524 0 0  0.314286 0 0  0.419048 0 0  0.52381 0 0  0.628571 0 0  0.733333 0 0  0.838095 0 0  0.9428569999999999 0 0  1.04762 0 0  1.15238 0 0  1.25714 0 0  1.3619 0 0  1.46667 0 0  1.57143 0 0  1.67619 0 0  1.78095 0 0  1.88571 0 0  1.99048 0 0  2.09524 0 0  2.2 0.1025 0  2.2 0.205 0  2.2 0.3075 0  2.1 0.41 0  2 0.41 0  1.9 0.41 0  1.8 0.41 0  1.7 0.41 0  1.6 0.41 0  1.5 0.41 0  1.4 0.41 0  1.3 0.41 0  1.2 0.41 0  1.1 0.41 0  1 0.41 0  0.9 0.41 0  0.8 0.41 0  0.7 0.41 0  0.6 0.41 0  0.5 0.41 0  0.4 0.41 0  0.3 0.41 0  0.2 0.41 0  0.1 0.41 0  0 0.3075 0  0 0.205 0  0 0.1025 0  0.1566987973585577 0.2250001169958213 0  0.1749998830041787 0.2433012026414423 0  0.2250001169958213 0.2433012026414423 0  0.2433012026414423 0.2250001169958213 0  0.2433012026414423 0.1749998830041787 0  0.2250001169958213 0.1566987973585577 0  0.1749998830041787 0.1566987973585577 0  0.1566987973585577 0.1749998830041787 0  0.352033 0.262216 0  1.04579 0.252253 0  1.24065 0.243419 0  0.985775 0.171509 0  1.30324 0.187395 0  0.890988 0.190768 0  1.39085 0.202767 0  0.801464 0.204685 0  1.49904 0.204666 0  0.704267 0.202289 0  1.60238 0.204951 0  0.487789 0.19191 0  1.72935 0.219637 0  1.83335 0.187427 0  2.03359 0.193642 0  0.314663 0.307348 0  0.249039 0.333583 0  2.12147 0.253405 0  2.06373 0.0836837 0  0.0734726 0.267055 0  0.143989 0.0677174 0  0.0613613 0.33781 0  0.299628 0.236829 0  0.527114 0.295386 0  0.262384 0.26549 0  0.275777 0.18341 0  1.74578 0.330928 0  1.84001 0.302448 0  1.64998 0.313838 0  0.648421 0.302367 0  1.54544 0.308508 0  0.755686 0.306156 0  1.42668 0.314809 0  0.870524 0.298596 0  1.22553 0.112785 0  1.05603 0.147372 0  0.969346 0.329867 0  1.32527 0.276284 0  2.02914 0.29511 0  1.88168 0.119486 0  1.79545 0.104842 0  1.35688 0.0892539 0  1.69041 0.105324 0  0.914199 0.09555660000000001 0  1.58234 0.102923 0  0.61843 0.10815 0  1.47999 0.101161 0  0.725217 0.104273 0  0.821727 0.102306 0  1.96725 0.105778 0  0.418624 0.241547 0  0.135226 0.239087 0  1.14921 0.314841 0  0.404508 0.333259 0  0.590155 0.206269 0  2.12554 0.150731 0  1.93166 0.22436 0  0.104689 0.190046 0  0.267856 0.07447529999999999 0  0.269368 0.221581 0  0.434446 0.114927 0  1.0089 0.07933809999999999 0  0.953023 0.246698 0  1.25853 0.33355 0  1.05268 0.340828 0  2.1369 0.067383 0  0.522398 0.112537 0  1.3421 0.348929 0  0.215186 0.289473 0  0.203197 0.335348 0  1.13984 0.190728 0  1.93813 0.330504 0  1.10505 0.0883705 0  0.341988 0.0824728 0  0.253113 0.138035 0  0.291932 0.131907 0  0.203713 0.102439 0  0.150375 0.134668 0  0.151494 0.309119 0  0.354384 0.17896 0  0.06853670000000001 0.100776 0  0.424128 0.180088 0  0.474925 0.0568661 0  2.10843 0.347669 0  2.160735 0.2804525 0  2.160735 0.2292025 0  2.2 0.25625 0  2.079485 0.04184185 0  2.027105 0.04184185 0  2.04286 0 0  0.1767565 0.0338587 0  0.1243755 0.0338587 0  0.157143 0 0  0.08068065000000001 0.373905 0  0.03068065 0.373905 0  0.05 0.41 0  0.03068065 0.322655 0  0 0.35875 0  0.281851 0.3204655 0  0.2745195 0.3717915 0  0.3073315 0.358674 0  0.06741695 0.3024325 0  0.0367363 0.2872775 0  0.3071455 0.2720885 0  0.3258305 0.2495225 0  0.333348 0.284782 0  0.2557115 0.2995365 0  0.2885235 0.286419 0  2.075305 0.2742575 0  2.031365 0.244376 0  2.07753 0.2235235 0  2.01549 0.09473085000000001 0  1.978865 0.052889 0  2.00042 0.14971 0  2.04866 0.13866285 0  0.472869 0.2684665 0  0.4532065 0.2167285 0  0.5074514999999999 0.243648 0  2.16277 0.1778655 0  2.16277 0.1266155 0  2.2 0.15375 0  1.90667 0.171923 0  1.882505 0.2058935 0  1.857515 0.1534565 0  1.885835 0.263404 0  1.83668 0.2449375 0  0.6042925 0.1572095 0  0.647211 0.204279 0  0.6613485 0.1552195 0  0.3595855 0.3203035 0  0.3782705 0.2977375 0  0.155113 0.241194 0  0.1459625 0.2320435 0  0.1646446609406726 0.2353553390593274 0  0.259539 0.179205 0  0.2628885 0.191705 0  0.2482962819455563 0.1870590127797247 0  0.281006 0.2511595 0  1.0209025 0.1594405 0  1.05091 0.1998125 0  1.0157825 0.211881 0  1.264385 0.15009 0  1.23309 0.178102 0  1.271945 0.215407 0  1.291205 0.10101945 0  1.33006 0.13832445 0  0.928528 0.0477783 0  0.876147 0.0477783 0  0.890476 0 0  0.9025935 0.1431623 0  0.9499869999999999 0.1335328 0  0.9383815 0.1811385 0  0.867963 0.0989313 0  0.8563575 0.146537 0  0.8299110000000001 0.051153 0  1.411775 0.04462695 0  1.35939 0.04462695 0  1.414285 0 0  1.373865 0.14601045 0  1.347045 0.195081 0  1.418435 0.09520745 0  1.43542 0.151964 0  1.47333 0.0505805 0  0.7775300000000001 0.051153 0  0.785714 0 0  0.8115954999999999 0.1534955 0  0.8462259999999999 0.1977265 0  0.7734719999999999 0.1032895 0  0.7633405 0.154479 0  0.729275 0.0521365 0  1.52571 0.0505805 0  1.51905 0 0  1.489515 0.1529135 0  1.444945 0.2037165 0  1.531165 0.102042 0  1.54069 0.1537945 0  1.576885 0.0514615 0  1.9804 0.259735 0  1.982625 0.209001 0  1.820005 0.356224 0  1.870005 0.356224 0  1.85 0.41 0  1.78468 0.2610425 0  1.78135 0.203532 0  1.72289 0.370464 0  1.77289 0.370464 0  1.75 0.41 0  1.792895 0.316688 0  1.737565 0.2752825 0  1.62499 0.361919 0  1.67499 0.361919 0  1.65 0.41 0  1.69788 0.322383 0  1.689665 0.2667375 0  1.62618 0.2593945 0  1.665865 0.212294 0  0.6242105 0.3561835 0  0.6742105 0.3561835 0  0.6499999999999999 0.41 0  0.6192880000000001 0.254318 0  0.6763440000000001 0.252328 0  1.52272 0.359254 0  1.57272 0.359254 0  1.55 0.41 0  1.59771 0.311173 0  1.57391 0.2567295 0  1.52224 0.256587 0  1.55071 0.2048085 0  0.727843 0.358078 0  0.7778430000000001 0.358078 0  0.75 0.41 0  0.7020535 0.3042615 0  0.7299765 0.2542225 0  0.778575 0.2554205 0  0.7528655 0.203487 0  1.41334 0.3624045 0  1.46334 0.3624045 0  1.45 0.41 0  1.48606 0.3116585 0  1.46286 0.2597375 0  1.408765 0.258788 0  0.8352619999999999 0.354298 0  0.885262 0.354298 0  0.8500000000000001 0.41 0  0.813105 0.302376 0  0.8359939999999999 0.2516405 0  0.880756 0.244682 0  0.9346730000000001 0.3699335 0  0.984673 0.3699335 0  0.95 0.41 0  0.9199349999999999 0.3142315 0  0.676894 0.0521365 0  0.680952 0 0  0.714742 0.153281 0  0.6718235 0.1062115 0  0.6235005 0.054075 0  1.629265 0.0514615 0  1.62381 0 0  1.59236 0.153937 0  1.636375 0.1041235 0  1.646395 0.1551375 0  1.6833 0.052662 0  1.73568 0.052662 0  1.72857 0 0  1.70988 0.1624805 0  1.74293 0.105083 0  1.7624 0.1622395 0  1.7882 0.052421 0  1.84058 0.052421 0  1.83333 0 0  1.8144 0.1461345 0  1.838565 0.112164 0  1.883695 0.059743 0  1.124605 0.3624205 0  1.174605 0.3624205 0  1.15 0.41 0  1.314255 0.2318395 0  1.28296 0.2598515 0  1.35806 0.2395255 0  1.375975 0.2955465 0  1.92648 0.052889 0  1.938095 0 0  1.924465 0.112632 0  1.949455 0.165069 0  0.352254 0.3716295 0  0.402254 0.3716295 0  0.35 0.41 0  0.513557 0.352693 0  0.563557 0.352693 0  0.55 0.41 0  0.5877675 0.2988765 0  0.5586344999999999 0.2508275 0  0.538972 0.1990895 0  0.452254 0.3716295 0  0.45 0.41 0  0.465811 0.3143225 0  0.411566 0.287403 0  0.3853285 0.2518815 0  0.1199575 0.2145665 0  0.0890808 0.2285505 0  0.1043493 0.253071 0  0.2245195 0.3717915 0  0.25 0.41 0  0.291071 0.03723765 0  0.23869 0.03723765 0  0.261905 0 0  0.265876 0.2435355 0  0.2563345 0.2232905 0  0.2528425 0.245245 0  0.284498 0.229205 0  1.032465 0.11335505 0  0.9973375 0.12542355 0  0.9615494999999999 0.08744735000000001 0  0.9220055 0.218733 0  0.9693989999999999 0.2091035 0  0.9611845 0.2882825 0  0.9117735 0.272647 0  1.229265 0.371775 0  1.279265 0.371775 0  1.25 0.41 0  1.02634 0.375414 0  1.07634 0.375414 0  1.05 0.41 0  1.011013 0.3353475 0  2.11607 0.0336915 0  2.16845 0.0336915 0  2.14762 0 0  2.16845 0.0849415 0  2.2 0.05125 0  2.100315 0.07553335 0  0.5562765000000001 0.159403 0  0.570414 0.1103435 0  0.5050935 0.1522235 0  1.32105 0.3794645 0  1.37105 0.3794645 0  1.35 0.41 0  1.333685 0.3126065 0  1.38439 0.331869 0  0.9994065 0.2494755 0  1.007568 0.29106 0  1.300315 0.3412395 0  1.2919 0.304917 0  2.13122 0.109057 0  2.094635 0.11720735 0  0.2725725 0.2024955 0  0.259684 0.2107905 0  0.2482962819455563 0.2129409872202754 0  0.2877025 0.2101195 0  2.123505 0.202068 0  2.079565 0.1721865 0  1.02826 0.03966905 0  0.9758784999999999 0.03966905 0  0.9952384999999999 0 0  1.049235 0.2965405 0  1.100945 0.3278345 0  1.0975 0.283547 0  0.5711200000000001 0.054075 0  0.5761905 0 0  0.523104 0.0562685 0  1.24959 0.2884845 0  1.20387 0.3241955 0  1.19493 0.27913 0  0.238785 0.2774815 0  0.2321125 0.311528 0  0.226118 0.3344655 0  0.2015985 0.3726739999999999 0  1.144525 0.2527845 0  1.190245 0.2170735 0  1.092815 0.2214905 0  0.2091915 0.3124105 0  0.220093 0.266387 0  0.243692 0.2543955 0  0.2353553390593274 0.2353553390593274 0  0.478422 0.113732 0  0.4611175 0.1534185 0  1.919065 0.370252 0  1.969065 0.370252 0  1.95 0.41 0  1.983635 0.312807 0  2.01457 0.352555 0  1.88907 0.316476 0  1.934895 0.277432 0  1.182685 0.1517565 0  1.097935 0.16905 0  1.128715 0.04418525 0  1.076335 0.04418525 0  1.1 0 0  1.056975 0.08385429999999999 0  1.08054 0.11787125 0  1.122445 0.13954925 0  1.16529 0.10057775 0  0.304922 0.07847404999999999 0  0.328137 0.0412364 0  0.380518 0.0412364 0  0.366667 0 0  0.388217 0.09869990000000001 0  0.426747 0.0574635 0  0.31696 0.1071899 0  0.279894 0.10319115 0  0.2725225 0.134971 0  0.2604845 0.10625515 0  0.228413 0.120237 0  0.2143565 0.129569 0  0.2390565 0.147367 0  1.30701 0.04462695 0  1.30952 0 0  1.241335 0.0563925 0  0.2357845 0.08845715 0  1.188955 0.0563925 0  1.20476 0 0  0.2066185 0.0512195 0  0.173851 0.08507819999999999 0  0.0367363 0.2360275 0  0 0.25625 0  0.264445 0.1607225 0  0.248207 0.1565175 0  0.2353553390593274 0.1646446609406726 0  0.2838545 0.1576585 0  0.130694 0.182523 0  0.1273445 0.195023 0  0.1517037180544437 0.1870590127797247 0  0.127532 0.162357 0  0.153537 0.154834 0  0.0523445 0.197523 0  0
[...]
<PointData  Vectors="u"> 
<DataArray  type="Float64"  Name="u"  NumberOfComponents="3" format="ascii">-7.7315105466717678e-16 2.9685866822929163e-15 0.0000000000000000e+00  0.0000000000000000e+00 0.0000000000000000e+00 0.0000000000000000e+00  0.0000000000000000e+00 0.0000000000000000e+00 0.0000000000000000e+00  0.0000000000000000e+00 0.0000000000000000e+00 0.0000000000000000e+00  0.0000000000000000e+00 0.0000000000000000e+00 0.0000000000000000e+00  0.0000000000000000e+00 0.0000000000000000e+00 0.0000000000000000e+00  0.0000000000000000e+00 0.0000000000000000e+00 0.0000000000000000e+00  0.0000000000000000e+00 0.0000000000000000e+00 0.0000000000000000e+00  0.0000000000000000e+00 0.0000000000000000e+00 0.0000000000000000e+00  0.0000000000000000e+00 0.0000000000000000e+00 0.0000000000000000e+00  0.0000000000000000e+00 5.0038283914120770e-16 0.0000000000000000e+00  0.0000000000000000e+00 0.0000000000000000e+00 0.0000000000000000e+00  0.0000000000000000e+00 0.0000000000000000e+00 0.0000000000000000e+00  0.0000000000000000e+00 -3.0526997825044501e-15 0.0000000000000000e+00  0.0000000000000000e+00 -7.7460886630755212e-16 0.0000000000000000e+00  0.0000000000000000e+00 0.0000000000000000e+00 0.0000000000000000e+00  0.0000000000000000e+00 0.0000000000000000e+00 0.0000000000000000e+00  0.0000000000000000e+00 0.0000000000000000e+00 0.0000000000000000e+00  0.0000000000000000e+00 -6.8749538501876047e-16 0.0000000000000000e+00  0.0000000000000000e+00 7.1913218326924540e-16 0.0000000000000000e+00  0.0000000000000000e+00 0.0000000000000000e+00 0.0000000000000000e+00  0.0000000000000000e+00 0.0000000000000000e+00 0.0000000000000000e+00  1.5826331796549121e-15 3.1147842990400319e-16 0.0000000000000000e+00  4.9642926762763000e-16 0.0000000000000000e+00 0.0000000000000000e+00  3.4228030752463303e-16 0.0000000000000000e+00 0.0000000000000000e+00  0.0000000000000000e+00 1.0999916793408364e-15 0.0000000000000000e+00  0.0000000000000000e+00 -3.3775723257538335e-16 0.0000000000000000e+00  0.0000000000000000e+00 0.0000000000000000e+00 0.0000000000000000e+00  1.1250000003587148e+00 3.0442620205435406e-10 0.0000000000000000e+00  1.5000000000001463e+00 4.9419452139243231e-10 0.0000000000000000e+00  1.1249999996415072e+00 3.0399003742920069e-10 0.0000000000000000e+00  0.0000000000000000e+00 0.0000000000000000e+00 0.0000000000000000e+00  0.0000000000000000e+00 -9.3609737833802237e-16 0.0000000000000000e+00  0.0000000000000000e+00 0.0000000000000000e+00 0.0000000000000000e+00  0.0000000000000000e+00 0.0000000000000000e+00 0.0000000000000000e+00  0.0000000000000000e+00 0.0000000000000000e+00 0.0000000000000000e+00  0.0000000000000000e+00 0.0000000000000000e+00 0.0000000000000000e+00  0.0000000000000000e+00 0.0000000000000000e+00 0.0000000000000000e+00  0.0000000000000000e+00 0.0000000000000000e+00 0.0000000000000000e+00  0.0000000000000000e+00 0.0000000000000000e+00 0.0000000000000000e+00  0.0000000000000000e+00 3.1670224291881551e-16 0.0000000000000000e+00  0.0000000000000000e+00 0.0000000000000000e+00 0.0000000000000000e+00  0.0000000000000000e+00 0.0000000000000000e+00 0.0000000000000000e+00  0.0000000000000000e+00 -4.1994143066682044e-16 0.0000000000000000e+00  0.0000000000000000e+00 -5.4963228177633411e-16 0.0000000000000000e+00  0.0000000000000000e+00 0.0000000000000000e+00 0.0000000000000000e+00  0.0000000000000000e+00 3.0321271026190178e-16 0.0000000000000000e+00  0.0000000000000000e+00 0.0000000000000000e+00 0.0000000000000000e+00  0.0000000000000000e+00 0.0000000000000000e+00 0.0000000000000000e+00  0.0000000000000000e+00 8.2665422993009446e-16 0.0000000000000000e+00  0.0000000000000000e+00 -9.4688730171250302e-16 0.0000000000000000e+00  0.0000000000000000e+00 0.0000000000000000e+00 0.0000000000000000e+00  1.1250000000000007e+00 0.0000000000000000e+00 0.0000000000000000e+00  1.4999999999999973e+00 0.0000000000000000e+00 0.0000000000000000e+00  1.1250000000000004e+00 0.0000000000000000e+00 0.0000000000000000e+00  0.0000000000000000e+00 0.0000000000000000e+00 0.0000000000000000e+00  0.0000000000000000e+00 0.0000000000000000e+00 0.0000000000000000e+00  0.0000000000000000e+00 0.0000000000000000e+00 0.0000000000000000e+00  0.0000000000000000e+00 0.0000000000000000e+00 0.0000000000000000e+00  4.7002098742379043e-16 0.0000000000000000e+00 0.0000000000000000e+00  -8.6942970823986383e-16 0.0000000000000000e+00 0.0000000000000000e+00  4.1678741185669289e-16 0.0000000000000000e+00 0.0000000000000000e+00  -1.1573942240264517e-15 0.0000000000000000e+00 0.0000000000000000e+00  1.2548608047803962e+00 -3.2688532245589230e-01 0.0000000000000000e+00  1.4202797582405415e+00 4.9573134053315853e-05 0.0000000000000000e+00  1.4473151219746878e+00 5.3845884084021428e-06 0.0000000000000000e+00  1.4599981051307742e+00 7.7341800046511181e-05 0.0000000000000000e+00  1.4889375277913841e+00 1.9667057448593080e-06 0.0000000000000000e+00  1.4928171855877876e+00 9.8063355637583713e-05 0.0000000000000000e+00  1.4998220107546458e+00 4.0827382514608264e-08 0.0000000000000000e+00  1.5000918769565370e+00 -8.3006656347020405e-05 0.0000000000000000e+00  1.4999960166095454e+00 -2.9892621134739347e-07 0.0000000000000000e+00  1.4999141022315448e+00 -1.1693928832872626e-03 0.0000000000000000e+00  1.4999999142679761e+00 -1.7361090699550642e-07 0.0000000000000000e+00  1.4591310797927548e+00 -8.1714524456405115e-03 0.0000000000000000e+00  1.4923530657221422e+00 -4.9494096876409510e-08 0.0000000000000000e+00  1.4889776195591591e+00 -1.1726823674843803e-08 0.0000000000000000e+00  1.4953954493972021e+00 7.5905483061735910e-10 0.0000000000000000e+00  1.4284533212475325e+00 -4.2927624385154495e-01 0.0000000000000000e+00  1.7553717003278189e+00 -2.7566061980107087e-01 0.0000000000000000e+00  1.4163696358125886e+00 5.8990815309830757e-10 0.0000000000000000e+00  9.7468252404212941e-01 3.7022544007863016e-10 0.0000000000000000e+00  1.2752371837794605e+00 5.6411328543393879e-01 0.0000000000000000e+00  1.5559326403402018e+00 -2.9608366165020389e-01 0.0000000000000000e+00  1.0826465114519788e+00 2.9463765608871600e-01 0.0000000000000000e+00  8.2734423701693982e-01 -4.1539964708057375e-01 0.0000000000000000e+00  1.2183953369354050e+00 -2.3617878784050104e-02 0.0000000000000000e+00  1.1314311667735899e+00 -6.1007601259465638e-01 0.0000000000000000e+00  3.4049916721100082e-01 2.2151344151736171e-01 0.0000000000000000e+00  9.3398474651829400e-01 -1.3845626804283175e-08 0.0000000000000000e+00  1.1610548733902384e+00 -5.5601920400613379e-09 0.0000000000000000e+00  1.0771906651120953e+00 -5.6462446314168447e-08 0.0000000000000000e+00  1.1629149288392435e+00 -2.1448291638874171e-03 0.0000000000000000e+00  1.1175883381095557e+00 -1.4132734562773523e-07 0.0000000000000000e+00  1.1346721579557941e+00 -7.8958515040483608e-05 0.0000000000000000e+00  1.0696131960456712e+00 -1.4515581186787553e-07 0.0000000000000000e+00  1.1871709180136754e+00 9.7835972002327884e-05 0.0000000000000000e+00  1.1964831774258065e+00 4.2636527497618426e-06 0.0000000000000000e+00  1.3814888573649156e+00 4.1361958236431703e-05 0.0000000000000000e+00  9.4340109463503508e-01 4.0724750793803835e-05 0.0000000000000000e+00  1.3186291127908150e+00 8.3142329175186201e-07 0.0000000000000000e+00  1.2101792219882965e+00 5.4879036176854139e-10 0.0000000000000000e+00  1.2389894989909014e+00 -2.8877310802261753e-09 0.0000000000000000e+00  1.1419408023865489e+00 -1.1029451501870835e-08 0.0000000000000000e+00  1.0218142178516805e+00 1.1276305395296182e-07 0.0000000000000000e+00  1.1453787198073093e+00 -4.2412248771670198e-08 0.0000000000000000e+00  1.0725889332086302e+00 4.6590967665273905e-05 0.0000000000000000e+00  1.1280885837570869e+00 -1.1205495664191228e-07 0.0000000000000000e+00  1.1638613572695902e+00 -6.5366923441886155e-04 0.0000000000000000e+00  1.1151380937633202e+00 -1.8155820435768538e-07 0.0000000000000000e+00  1.1377616300679250e+00 -4.6550564755093557e-04 0.0000000000000000e+00  1.1237246236872875e+00 -3.5223996425053306e-05 0.0000000000000000e+00  1.1486018353055416e+00 1.6464302243650612e-10 0.0000000000000000e+00  1.3678911259190485e+00 -1.0937840802177788e-01 0.0000000000000000e+00  6.0203039601901120e-01 5.4899989316858444e-01 0.0000000000000000e+00  1.0693518112986196e+00 9.1124724011382016e-06 0.0000000000000000e+00  1.0377284441405914e+00 -1.1484793571408793e-01 0.0000000000000000e+00  1.4973435434208682e+00 -6.1095452636890715e-03 0.0000000000000000e+00  1.3948795592437362e+00 5.6255017556805402e-10 0.0000000000000000e+00  1.4866219058216297e+00 -1.2479513497686101e-09 0.0000000000000000e+00  6.3096061232612122e-01 -1.0441753018387176e-01 0.0000000000000000e+00  1.5427993084856140e+00 3.3020362388477120e-01 0.0000000000000000e+00  3.1529508268499723e-01 -2.9258197740189512e-01 0.0000000000000000e+00  1.2047646071092613e+00 7.8245348389885630e-02 0.0000000000000000e+00  9.3642689862142792e-01 2.5975791216642068e-05 0.0000000000000000e+00  1.4378957984478085e+00 9.6712350794780870e-05 0.0000000000000000e+00  9.1016795669830830e-01 1.2707917787896026e-06 0.0000000000000000e+00  8.4145832803561937e-01 1.5625958554624103e-05 0.0000000000000000e+00  8.2402955358129448e-01 1.9798914582146210e-10 0.0000000000000000e+00  1.1912459228779013e+00 1.0477231360776532e-02 0.0000000000000000e+00  7.6059923196985835e-01 8.1074531195161747e-08 0.0000000000000000e+00  1.7044928592212119e+00 -1.9357678491660327e-01 0.0000000000000000e+00  1.8947130760692033e+00 -1.1322643807693582e-02 0.0000000000000000e+00  1.4927321757238370e+00 2.1575103599307982e-05 0.0000000000000000e+00  9.3778986123886143e-01 -9.8635892425943242e-11 0.0000000000000000e+00  1.0145057638356505e+00 1.3251555221915750e-05 0.0000000000000000e+00  1.1809632562969561e+00 2.5566440594961770e-01 0.0000000000000000e+00  1.0044156804569622e+00 5.5270150875275803e-01 0.0000000000000000e+00  1.1462907227010277e+00 5.4742495782111744e-01 0.0000000000000000e+00  1.7655391769790716e+00 3.6697810988180576e-02 0.0000000000000000e+00  1.0985183551373336e+00 -5.7249688643223440e-01 0.0000000000000000e+00  1.7766641688075355e+00 4.6628750298835270e-01 0.0000000000000000e+00  1.1101059085450344e+00 1.1007258099118854e-01 0.0000000000000000e+00  1.2391869574021821e+00 -4.2158021739848828e-01 0.0000000000000000e+00  1.3646278159354954e+00 2.3102016363141485e-02 0.0000000000000000e+00  7.3382141289376790e-01 1.6870030248587829e-02 0.0000000000000000e+00  7.7348803404954636e-01 1.9712264768051828e-10 0.0000000000000000e+00  1.2967966769060872e+00 4.1858241004319961e-10 0.0000000000000000e+00  1.4790924088861193e+00 5.2989410345162864e-10 0.0000000000000000e+00  1.4062499997442137e+00 4.4220317057951683e-10 0.0000000000000000e+00  5.4983050945775247e-01 1.1458876849522136e-10 0.0000000000000000e+00  5.4983050972883130e-01 1.3530818089978117e-10 0.0000000000000000e+00  0.0000000000000000e+00 0.0000000000000000e+00 0.0000000000000000e+00  1.1565803912062744e+00 -4.9530422555767069e-02 0.0000000000000000e+00  9.3265592730668889e-01 -1.0776418779885029e-01 0.0000000000000000e+00  0.0000000000000000e+00 1.6565502925882008e-15 0.0000000000000000e+00  7.4038418798440098e-01 1.1424622372565510e-01 0.0000000000000000e+00  5.2793134387028451e-01 5.4630674134610091e-02 0.0000000000000000e+00  0.0000000000000000e+00 -3.4753430964271160e-16 0.0000000000000000e+00  1.0639879518761772e+00 2.3038665504515896e-01 0.0000000000000000e+00  6.5624999999999911e-01 0.0000000000000000e+00 0.0000000000000000e+00  1.6005549114255682e+00 -4.1479615610469245e-01 0.0000000000000000e+00  1.0904807338503033e+00 -1.0842314233614830e-01 0.0000000000000000e+00  1.1407765786246100e+00 -1.7076925380586266e-01 0.0000000000000000e+00  1.3080060746022668e+00 4.9473835076542422e-01 0.0000000000000000e+00  1.2801129753410814e+00 3.5771182184200800e-01 0.0000000000000000e+00  1.2507362848560799e+00 -5.3229482235003112e-01 0.0000000000000000e+00  1.1057171994165642e+00 -3.9276282516224781e-01 0.0000000000000000e+00  1.3244425113965759e+00 -4.1803213551268986e-01 0.0000000000000000e+00  1.6770071530000989e+00 -4.9625426460548383e-01 0.0000000000000000e+00  1.4143516100599716e+00 -5.7575726621321632e-01 0.0000000000000000e+00  1.3287947176640378e+00 6.2953620845925725e-10 0.0000000000000000e+00  1.4446590342073653e+00 7.1789574774017934e-10 0.0000000000000000e+00  1.4877530020799947e+00 7.6383989828931490e-10 0.0000000000000000e+00  1.0659981413483213e+00 4.2884989049850825e-10 0.0000000000000000e+00  6.7414314272545450e-01 1.5255984717625553e-10 0.0000000000000000e+00  1.3908869454950319e+00 5.1410597603639440e-10 0.0000000000000000e+00  1.3429285860590376e+00 6.6520283635504939e-10 0.0000000000000000e+00  1.3536619232584612e+00 -6.1410392137829103e-02 0.0000000000000000e+00  1.4321062357162806e+00 -3.9316533182580771e-02 0.0000000000000000e+00  1.4360345464485327e+00 -3.0529796047049629e-02 0.0000000000000000e+00  1.4737198898879083e+00 5.2242738901742956e-10 0.0000000000000000e+00  1.2806973291703763e+00 4.0636482260626940e-10 0.0000000000000000e+00  1.4062500002561753e+00 4.4232998166525010e-10 0.0000000000000000e+00  1.4609486760327990e+00 -2.5504193441523614e-09 0.0000000000000000e+00  1.4999715047450857e+00 -4.8478842187637593e-09 0.0000000000000000e+00  1.4051731435073798e+00 -6.6254747385562008e-09 0.0000000000000000e+00  1.3782500699172398e+00 -3.5362112294331336e-09 0.0000000000000000e+00  1.4430694640359925e+00 -1.0266259977580908e-08 0.0000000000000000e+00  1.4160894241909212e+00 -2.1246768441734640e-03 0.0000000000000000e+00  1.4997532602683004e+00 -2.8481564368062475e-03 0.0000000000000000e+00  1.4110196094691896e+00 -1.5915497976112139e-03 0.0000000000000000e+00  1.2401572454680847e+00 -2.4622266692140768e-01 0.0000000000000000e+00  1.2786474726884907e+00 -2.3889931049233931e-01 0.0000000000000000e+00  4.0774918546497235e-01 3.6470956461496645e-01 0.0000000000000000e+00  3.1662402205005985e-01 3.7840758126307411e-01 0.0000000000000000e+00  0.0000000000000000e+00 0.0000000000000000e+00 0.0000000000000000e+00  1.7806897432580673e-01 2.3177249815721129e-01 0.0000000000000000e+00  1.1263913869805646e-01 9.3844285771666064e-02 0.0000000000000000e+00  -4.1074937737167208e-16 0.0000000000000000e+00 0.0000000000000000e+00  9.0800101949261980e-01 -5.6487720871928215e-01 0.0000000000000000e+00  1.4259431900580968e+00 5.8435887807965509e-05 0.0000000000000000e+00  1.4990427728786839e+00 5.2257528115394391e-05 0.0000000000000000e+00  1.4983066446750912e+00 6.9201057478378004e-05 0.0000000000000000e+00  1.3923825427416872e+00 3.3634847987735835e-06 0.0000000000000000e+00  1.4741770126891316e+00 6.3314670561799058e-06 0.0000000000000000e+00  1.4961340488448696e+00 3.5500912432970174e-06 0.0000000000000000e+00  1.1140887987337913e+00 1.1490474609138699e-06 0.0000000000000000e+00  1.3413219226625024e+00 7.8844785085761533e-07 0.0000000000000000e+00  6.1779659350715421e-01 1.5840035380886071e-05 0.0000000000000000e+00  6.1782352285552344e-01 1.2050992787706197e-05 0.0000000000000000e+00  0.0000000000000000e+00 8.1833411440002205e-16 0.0000000000000000e+00  1.3636139257546203e+00 7.5448775384726166e-05 0.0000000000000000e+00  1.3177737677940398e+00 7.0754130590005329e-05 0.0000000000000000e+00  1.4797173903068845e+00 9.7155003922453427e-05 0.0000000000000000e+00  1.0985749606040349e+00 2.9721908538929435e-05 0.0000000000000000e+00  1.3781288267587994e+00 3.7418147649077568e-05 0.0000000000000000e+00  6.5530368387281479e-01 -5.0502772555476033e-06 0.0000000000000000e+00  5.8199191141942186e-01 -5.0364104892398960e-08 0.0000000000000000e+00  5.8199187035431676e-01 4.0732749022276034e-09 0.0000000000000000e+00  0.0000000000000000e+00 0.0000000000000000e+00 0.0000000000000000e+00  1.3757962769422745e+00 1.5507142900467858e-07 0.0000000000000000e+00  1.4964882575044849e+00 6.8293097952553142e-07 0.0000000000000000e+00  1.0697412090790246e+00 -1.2959556423633786e-07 0.0000000000000000e+00  1.3996017315476745e+00 -2.1820741346747220e-07 0.0000000000000000e+00  6.4888551804337813e-01 -6.7404440249061099e-08 0.0000000000000000e+00  6.5525052594287980e-01 -5.7501240219657301e-05 0.0000000000000000e+00  0.0000000000000000e+00 1.2223496663893206e-15 0.0000000000000000e+00  1.4054536043565031e+00 -7.4974574956650518e-05 0.0000000000000000e+00  1.4981743887685051e+00 5.2654224145329753e-05 0.0000000000000000e+00  1.1308402258905998e+00 -1.9138699702372572e-04 0.0000000000000000e+00  1.4090180594741906e+00 -3.4638608590240364e-04 0.0000000000000000e+00  6.6585315685274094e-01 -1.5114556927142315e-04 0.0000000000000000e+00  6.4888562579792675e-01 -5.4174874004957896e-08 0.0000000000000000e+00  -4.6924754854854911e-16 0.0000000000000000e+00 0.0000000000000000e+00  1.4031644487963377e+00 -2.6959874868813967e-07 0.0000000000000000e+00  1.4999411938710330e+00 -2.6071172493737533e-07 0.0000000000000000e+00  1.1216410523275611e+00 -1.5388665241989508e-07 0.0000000000000000e+00  1.4064125898779127e+00 -2.2819685064423320e-07 0.0000000000000000e+00  6.5856961839463779e-01 -3.9007463108757487e-08 0.0000000000000000e+00  1.3930664991873165e+00 2.8139540936343133e-10 0.0000000000000000e+00  1.4994286257220915e+00 2.8423793836393903e-10 0.0000000000000000e+00  6.8374664677747710e-01 -2.2267951200121269e-09 0.0000000000000000e+00  6.8374664411910435e-01 -8.0683974192605279e-10 0.0000000000000000e+00  0.0000000000000000e+00 0.0000000000000000e+00 0.0000000000000000e+00  1.3878966715665240e+00 -2.0553980830856431e-08 0.0000000000000000e+00  1.4999230804265096e+00 -2.5928290549005399e-08 0.0000000000000000e+00  5.2278400207863740e-01 -5.2934289716406083e-09 0.0000000000000000e+00  5.2278399277649479e-01 -2.6322262735635742e-09 0.0000000000000000e+00  0.0000000000000000e+00 0.0000000000000000e+00 0.0000000000000000e+00  1.0547575567453336e+00 -9.4587900890368888e-09 0.0000000000000000e+00  1.3236896162289356e+00 -3.3955563589638414e-08 0.0000000000000000e+00  6.2110991352978728e-01 -2.2578168950350356e-08 0.0000000000000000e+00  6.2110988004114720e-01 -1.3464415887521113e-08 0.0000000000000000e+00  0.0000000000000000e+00 0.0000000000000000e+00 0.0000000000000000e+00  1.0081938986446264e+00 -2.9470174082025490e-08 0.0000000000000000e+00  1.3639553392770631e+00 -6.2997877690263477e-08 0.0000000000000000e+00  1.3943928711145774e+00 -1.2238877492100595e-07 0.0000000000000000e+00  1.4981010497711735e+00 -9.9085148479586850e-08 0.0000000000000000e+00  6.8551351383018566e-01 -1.1242320165856759e-03 0.0000000000000000e+00  6.8431338851497781e-01 -3.1823581917701538e-04 0.0000000000000000e+00  0.0000000000000000e+00 0.0000000000000000e+00 0.0000000000000000e+00  1.4141441833665227e+00 -5.1946465369886010e-03 0.0000000000000000e+00  1.4206133155725724e+00 -1.8358577594350728e-03 0.0000000000000000e+00  6.5070943757096444e-01 -5.5245354959084524e-08 0.0000000000000000e+00  6.5070935677707620e-01 -3.9289254179561691e-08 0.0000000000000000e+00  0.0000000000000000e+00 0.0000000000000000e+00 0.0000000000000000e+00  1.0976429886002759e+00 -9.4029703883495198e-08 0.0000000000000000e+00  1.4044876346279902e+00 -1.8659076392973531e-07 0.0000000000000000e+00  1.4050131869660392e+00 -2.4832234893113886e-07 0.0000000000000000e+00  1.4999986904236056e+00 -2.4527368017992656e-07 0.0000000000000000e+00  6.6338327021824350e-01 -2.9352254113308039e-05 0.0000000000000000e+00  6.6335338996213999e-01 3.3416236128964160e-05 0.0000000000000000e+00  0.0000000000000000e+00 0.0000000000000000e+00 0.0000000000000000e+00  1.1485916811426242e+00 -5.9663429664082873e-04 0.0000000000000000e+00  1.4137372287244121e+00 -5.7085950909124773e-04 0.0000000000000000e+00  1.4092862666918982e+00 -1.0925598626512290e-04 0.0000000000000000e+00  1.5000803734649846e+00 -4.4157130825312461e-04 0.0000000000000000e+00  6.1566336402360844e-01 -5.5714070862972103e-08 0.0000000000000000e+00  6.1566326236840396e-01 -6.2785580719735200e-08 0.0000000000000000e+00  0.0000000000000000e+00 0.0000000000000000e+00 0.0000000000000000e+00  1.0939550465311718e+00 -1.7431855933106317e-07 0.0000000000000000e+00  1.3930569828215098e+00 -2.621991