<?xml version="1.0"?>
<VTKFile type="UnstructuredGrid"  version="0.1"  >
<UnstructuredGrid>
<Piece  NumberOfPoints="525" NumberOfCells="924">
<Points>
<DataArray  type="Float64"  NumberOfComponents="3"  format="ascii">0 0 0  2.2 0 0  2.2 0.41 0  0 0.41 0  0.15 0.2 0  0.25 0.2 0  0.2 0.15 0  0.2 0.25 0  0.104762 0 0  0.209524 0 0  0.314286 0 0  0.419048 0 0  0.52381 0 0  0.628571 0 0  0.733333 0 0  0.838095 0 0  0.9428569999999999 0 0  1.04762 0 0  1.15238 0 0  1.25714 0 0  1.3619 0 0  1.46667 0 0  1.57143 0 0  1.67619 0 0  1.78095 0 0  1.88571 0 0  1.99048 0 0  2.09524 0 0  2.2 0.1025 0  2.2 0.205 0  2.2 0.3075 0  2.1 0.41 0  2 0.41 0  1.9 0.41 0  1.8 0.41 0  1.7 0.41 0  1.6 0.41 0  1.5 0.41 0  1.4 0.41 0  1.3 0.41 0  1.2 0.41 0  1.1 0.41 0  1 0.41 0  0.9 0.41 0  0.8 0.41 0  0.7 0.41 0  0.6 0.41 0  0.5 0.41 0  0.4 0.41 0  0.3 0.41 0  0.2 0.41 0  0.1 0.41 0  0 0.3075 0  0 0.205 0  0 0.1025 0  0.1566987973585577 0.2250001169958213 0  0.1749998830041787 0.2433012026414423 0  0.2250001169958213 0.2433012026414423 0  0.2433012026414423 0.2250001169958213 0  0.2433012026414423 0.1749998830041787 0  0.2250001169958213 0.1566987973585577 0  0.1749998830041787 0.1566987973585577 0  0.1566987973585577 0.1749998830041787 0  0.352033 0.262216 0  1.04579 0.252253 0  1.24065 0.243419 0  0.985775 0.171509 0  1.30324 0.187395 0  0.890988 0.190768 0  1.39085 0.202767 0  0.801464 0.204685 0  1.49904 0.204666 0  0.704267 0.202289 0  1.60238 0.204951 0  0.487789 0.19191 0  1.72935 0.219637 0  1.83335 0.187427 0  2.03359 0.193642 0  0.314663 0.307348 0  0.249039 0.333583 0  2.12147 0.253405 0  2.06373 0.0836837 0  0.0734726 0.267055 0  0.143989 0.0677174 0  0.0613613 0.33781 0  0.299628 0.236829 0  0.527114 0.295386 0  0.262384 0.26549 0  0.275777 0.18341 0  1.74578 0.330928 0  1.84001 0.302448 0  1.64998 0.313838 0  0.648421 0.302367 0  1.54544 0.308508 0  0.755686 0.306156 0  1.42668 0.314809 0  0.870524 0.298596 0  1.22553 0.112785 0  1.05603 0.147372 0  0.969346 0.329867 0  1.32527 0.276284 0  2.02914 0.29511 0  1.88168 0.119486 0  1.79545 0.104842 0  1.35688 0.0892539 0  1.69041 0.105324 0  0.914199 0.09555660000000001 0  1.58234 0.102923 0  0.61843 0.10815 0  1.47999 0.101161 0  0.725217 0.104273 0  0.821727 0.102306 0  1.96725 0.105778 0  0.418624 0.241547 0  0.135226 0.239087 0  1.14921 0.314841 0  0.404508 0.333259 0  0.590155 0.206269 0  2.12554 0.150731 0  1.93166 0.22436 0  0.104689 0.190046 0  0.267856 0.07447529999999999 0  0.269368 0.221581 0  0.434446 0.114927 0  1.0089 0.07933809999999999 0  0.953023 0.246698 0  1.25853 0.33355 0  1.05268 0.340828 0  2.1369 0.067383 0  0.522398 0.112537 0  1.3421 0.348929 0  0.215186 0.289473 0  0.203197 0.335348 0  1.13984 0.190728 0  1.93813 0.330504 0  1.10505 0.0883705 0  0.341988 0.0824728 0  0.253113 0.138035 0  0.291932 0.131907 0  0.203713 0.102439 0  0.150375 0.134668 0  0.151494 0.309119 0  0.354384 0.17896 0  0.06853670000000001 0.100776 0  0.424128 0.180088 0  0.474925 0.0568661 0  2.10843 0.347669 0  2.160735 0.2804525 0  2.160735 0.2292025 0  2.2 0.25625 0  2.079485 0.04184185 0  2.027105 0.04184185 0  2.04286 0 0  0.1767565 0.0338587 0  0.1243755 0.0338587 0  0.157143 0 0  0.08068065000000001 0.373905 0  0.03068065 0.373905 0  0.05 0.41 0  0.03068065 0.322655 0  0 0.35875 0  0.281851 0.3204655 0  0.2745195 0.3717915 0  0.3073315 0.358674 0  0.06741695 0.3024325 0  0.0367363 0.2872775 0  0.3071455 0.2720885 0  0.3258305 0.2495225 0  0.333348 0.284782 0  0.2557115 0.2995365 0  0.2885235 0.286419 0  2.075305 0.2742575 0  2.031365 0.244376 0  2.07753 0.2235235 0  2.01549 0.09473085000000001 0  1.978865 0.052889 0  2.00042 0.14971 0  2.04866 0.13866285 0  0.472869 0.2684665 0  0.4532065 0.2167285 0  0.5074514999999999 0.243648 0  2.16277 0.1778655 0  2.16277 0.1266155 0  2.2 0.15375 0  1.90667 0.171923 0  1.882505 0.2058935 0  1.857515 0.1534565 0  1.885835 0.263404 0  1.83668 0.2449375 0  0.6042925 0.1572095 0  0.647211 0.204279 0  0.6613485 0.1552195 0  0.3595855 0.3203035 0  0.3782705 0.2977375 0  0.155113 0.241194 0  0.1459625 0.2320435 0  0.1646446609406726 0.2353553390593274 0  0.259539 0.179205 0  0.2628885 0.191705 0  0.2482962819455563 0.1870590127797247 0  0.281006 0.2511595 0  1.0209025 0.1594405 0  1.05091 0.1998125 0  1.0157825 0.211881 0  1.264385 0.15009 0  1.23309 0.178102 0  1.271945 0.215407 0  1.291205 0.10101945 0  1.33006 0.13832445 0  0.928528 0.0477783 0  0.876147 0.0477783 0  0.890476 0 0  0.9025935 0.1431623 0  0.9499869999999999 0.1335328 0  0.9383815 0.1811385 0  0.867963 0.0989313 0  0.8563575 0.146537 0  0.8299110000000001 0.051153 0  1.411775 0.04462695 0  1.35939 0.04462695 0  1.414285 0 0  1.373865 0.14601045 0  1.347045 0.195081 0  1.418435 0.09520745 0  1.43542 0.151964 0  1.47333 0.0505805 0  0.7775300000000001 0.051153 0  0.785714 0 0  0.8115954999999999 0.1534955 0  0.8462259999999999 0.1977265 0  0.7734719999999999 0.1032895 0  0.7633405 0.154479 0  0.729275 0.0521365 0  1.52571 0.0505805 0  1.51905 0 0  1.489515 0.1529135 0  1.444945 0.2037165 0  1.531165 0.102042 0  1.54069 0.1537945 0  1.576885 0.0514615 0  1.9804 0.259735 0  1.982625 0.209001 0  1.820005 0.356224 0  1.870005 0.356224 0  1.85 0.41 0  1.78468 0.2610425 0  1.78135 0.203532 0  1.72289 0.370464 0  1.77289 0.370464 0  1.75 0.41 0  1.792895 0.316688 0  1.737565 0.2752825 0  1.62499 0.361919 0  1.67499 0.361919 0  1.65 0.41 0  1.69788 0.322383 0  1.689665 0.2667375 0  1.62618 0.2593945 0  1.665865 0.212294 0  0.6242105 0.3561835 0  0.6742105 0.3561835 0  0.6499999999999999 0.41 0  0.6192880000000001 0.254318 0  0.6763440000000001 0.252328 0  1.52272 0.359254 0  1.57272 0.359254 0  1.55 0.41 0  1.59771 0.311173 0  1.57391 0.2567295 0  1.52224 0.256587 0  1.55071 0.2048085 0  0.727843 0.358078 0  0.7778430000000001 0.358078 0  0.75 0.41 0  0.7020535 0.3042615 0  0.7299765 0.2542225 0  0.778575 0.2554205 0  0.7528655 0.203487 0  1.41334 0.3624045 0  1.46334 0.3624045 0  1.45 0.41 0  1.48606 0.3116585 0  1.46286 0.2597375 0  1.408765 0.258788 0  0.8352619999999999 0.354298 0  0.885262 0.354298 0  0.8500000000000001 0.41 0  0.813105 0.302376 0  0.8359939999999999 0.2516405 0  0.880756 0.244682 0  0.9346730000000001 0.3699335 0  0.984673 0.3699335 0  0.95 0.41 0  0.9199349999999999 0.3142315 0  0.676894 0.0521365 0  0.680952 0 0  0.714742 0.153281 0  0.6718235 0.1062115 0  0.6235005 0.054075 0  1.629265 0.0514615 0  1.62381 0 0  1.59236 0.153937 0  1.636375 0.1041235 0  1.646395 0.1551375 0  1.6833 0.052662 0  1.73568 0.052662 0  1.72857 0 0  1.70988 0.1624805 0  1.74293 0.105083 0  1.7624 0.1622395 0  1.7882 0.052421 0  1.84058 0.052421 0  1.83333 0 0  1.8144 0.1461345 0  1.838565 0.112164 0  1.883695 0.059743 0  1.124605 0.3624205 0  1.174605 0.3624205 0  1.15 0.41 0  1.314255 0.2318395 0  1.28296 0.2598515 0  1.35806 0.2395255 0  1.375975 0.2955465 0  1.92648 0.052889 0  1.938095 0 0  1.924465 0.112632 0  1.949455 0.165069 0  0.352254 0.3716295 0  0.402254 0.3716295 0  0.35 0.41 0  0.513557 0.352693 0  0.563557 0.352693 0  0.55 0.41 0  0.5877675 0.2988765 0  0.5586344999999999 0.2508275 0  0.538972 0.1990895 0  0.452254 0.3716295 0  0.45 0.41 0  0.465811 0.3143225 0  0.411566 0.287403 0  0.3853285 0.2518815 0  0.1199575 0.2145665 0  0.0890808 0.2285505 0  0.1043493 0.253071 0  0.2245195 0.3717915 0  0.25 0.41 0  0.291071 0.03723765 0  0.23869 0.03723765 0  0.261905 0 0  0.265876 0.2435355 0  0.2563345 0.2232905 0  0.2528425 0.245245 0  0.284498 0.229205 0  1.032465 0.11335505 0  0.9973375 0.12542355 0  0.9615494999999999 0.08744735000000001 0  0.9220055 0.218733 0  0.9693989999999999 0.2091035 0  0.9611845 0.2882825 0  0.9117735 0.272647 0  1.229265 0.371775 0  1.279265 0.371775 0  1.25 0.41 0  1.02634 0.375414 0  1.07634 0.375414 0  1.05 0.41 0  1.011013 0.3353475 0  2.11607 0.0336915 0  2.16845 0.0336915 0  2.14762 0 0  2.16845 0.0849415 0  2.2 0.05125 0  2.100315 0.07553335 0  0.5562765000000001 0.159403 0  0.570414 0.1103435 0  0.5050935 0.1522235 0  1.32105 0.3794645 0  1.37105 0.3794645 0  1.35 0.41 0  1.333685 0.3126065 0  1.38439 0.331869 0  0.9994065 0.2494755 0  1.007568 0.29106 0  1.300315 0.3412395 0  1.2919 0.304917 0  2.13122 0.109057 0  2.094635 0.11720735 0  0.2725725 0.2024955 0  0.259684 0.2107905 0  0.2482962819455563 0.2129409872202754 0  0.2877025 0.2101195 0  2.123505 0.202068 0  2.079565 0.1721865 0  1.02826 0.03966905 0  0.9758784999999999 0.03966905 0  0.9952384999999999 0 0  1.049235 0.2965405 0  1.100945 0.3278345 0  1.0975 0.283547 0  0.5711200000000001 0.054075 0  0.5761905 0 0  0.523104 0.0562685 0  1.24959 0.2884845 0  1.20387 0.3241955 0  1.19493 0.27913 0  0.238785 0.2774815 0  0.2321125 0.311528 0  0.226118 0.3344655 0  0.2015985 0.3726739999999999 0  1.144525 0.2527845 0  1.190245 0.2170735 0  1.092815 0.2214905 0  0.2091915 0.3124105 0  0.220093 0.266387 0  0.243692 0.2543955 0  0.2353553390593274 0.2353553390593274 0  0.478422 0.113732 0  0.4611175 0.1534185 0  1.919065 0.370252 0  1.969065 0.370252 0  1.95 0.41 0  1.983635 0.312807 0  2.01457 0.352555 0  1.88907 0.316476 0  1.934895 0.277432 0  1.182685 0.1517565 0  1.097935 0.16905 0  1.128715 0.04418525 0  1.076335 0.04418525 0  1.1 0 0  1.056975 0.08385429999999999 0  1.08054 0.11787125 0  1.122445 0.13954925 0  1.16529 0.10057775 0  0.304922 0.07847404999999999 0  0.328137 0.0412364 0  0.380518 0.0412364 0  0.366667 0 0  0.388217 0.09869990000000001 0  0.426747 0.0574635 0  0.31696 0.1071899 0  0.279894 0.10319115 0  0.2725225 0.134971 0  0.2604845 0.10625515 0  0.228413 0.120237 0  0.2143565 0.129569 0  0.2390565 0.147367 0  1.30701 0.04462695 0  1.30952 0 0  1.241335 0.0563925 0  0.2357845 0.08845715 0  1.188955 0.0563925 0  1.20476 0 0  0.2066185 0.0512195 0  0.173851 0.08507819999999999 0  0.0367363 0.2360275 0  0 0.25625 0  0.264445 0.1607225 0  0.248207 0.1565175 0  0.2353553390593274 0.1646446609406726 0  0.2838545 0.1576585 0  0.130694 0.182523 0  0.1273445 0.195023 0  0.1517037180544437 0.1870590127797247 0  0.127532 0.162357 0  0.153537 0.154834 0  0.0523445 0.197523 0  0
[...]
<PointData  Vectors="u"> 
<DataArray  type="Float64"  Name="u"  NumberOfComponents="3" format="ascii">-1.6306373935011324e-15 -1.1414629947908460e-15 0.0000000000000000e+00  0.0000000000000000e+00 0.0000000000000000e+00 0.0000000000000000e+00  0.0000000000000000e+00 0.0000000000000000e+00 0.0000000000000000e+00  4.8199047521779915e-16 6.1495318315915549e-16 0.0000000000000000e+00  0.0000000000000000e+00 0.0000000000000000e+00 0.0000000000000000e+00  0.0000000000000000e+00 0.0000000000000000e+00 0.0000000000000000e+00  0.0000000000000000e+00 -4.5343639017619552e-16 0.0000000000000000e+00  0.0000000000000000e+00 0.0000000000000000e+00 0.0000000000000000e+00  0.0000000000000000e+00 0.0000000000000000e+00 0.0000000000000000e+00  0.0000000000000000e+00 4.0828813154204885e-16 0.0000000000000000e+00  0.0000000000000000e+00 9.7857270828527962e-16 0.0000000000000000e+00  0.0000000000000000e+00 -7.2962193236733298e-16 0.0000000000000000e+00  0.0000000000000000e+00 -7.0706063359941590e-16 0.0000000000000000e+00  0.0000000000000000e+00 0.0000000000000000e+00 0.0000000000000000e+00  0.0000000000000000e+00 0.0000000000000000e+00 0.0000000000000000e+00  0.0000000000000000e+00 9.7300422966903564e-16 0.0000000000000000e+00  0.0000000000000000e+00 0.0000000000000000e+00 0.0000000000000000e+00  0.0000000000000000e+00 0.0000000000000000e+00 0.0000000000000000e+00  0.0000000000000000e+00 0.0000000000000000e+00 0.0000000000000000e+00  0.0000000000000000e+00 -4.2621159855965041e-16 0.0000000000000000e+00  0.0000000000000000e+00 0.0000000000000000e+00 0.0000000000000000e+00  0.0000000000000000e+00 -1.1720813621590343e-15 0.0000000000000000e+00  0.0000000000000000e+00 -3.0256597950798187e-16 0.0000000000000000e+00  0.0000000000000000e+00 0.0000000000000000e+00 0.0000000000000000e+00  4.0873536870955353e-16 0.0000000000000000e+00 0.0000000000000000e+00  0.0000000000000000e+00 -1.5560310516871388e-15 0.0000000000000000e+00  0.0000000000000000e+00 0.0000000000000000e+00 0.0000000000000000e+00  0.0000000000000000e+00 0.0000000000000000e+00 0.0000000000000000e+00  1.1250000003579073e+00 3.0484867761943572e-10 0.0000000000000000e+00  1.5000000000001792e+00 4.9493978149721666e-10 0.0000000000000000e+00  1.1249999996423243e+00 3.0440841061382931e-10 0.0000000000000000e+00  0.0000000000000000e+00 0.0000000000000000e+00 0.0000000000000000e+00  0.0000000000000000e+00 7.5547139326671095e-16 0.0000000000000000e+00  3.8407391383145781e-16 6.4751302899746497e-16 0.0000000000000000e+00  0.0000000000000000e+00 0.0000000000000000e+00 0.0000000000000000e+00  0.0000000000000000e+00 0.0000000000000000e+00 0.0000000000000000e+00  0.0000000000000000e+00 0.0000000000000000e+00 0.0000000000000000e+00  0.0000000000000000e+00 0.0000000000000000e+00 0.0000000000000000e+00  0.0000000000000000e+00 0.0000000000000000e+00 0.0000000000000000e+00  0.0000000000000000e+00 0.0000000000000000e+00 0.0000000000000000e+00  0.0000000000000000e+00 0.0000000000000000e+00 0.0000000000000000e+00  0.0000000000000000e+00 0.0000000000000000e+00 0.0000000000000000e+00  0.0000000000000000e+00 0.0000000000000000e+00 0.0000000000000000e+00  0.0000000000000000e+00 -6.3864062863528064e-16 0.0000000000000000e+00  0.0000000000000000e+00 0.0000000000000000e+00 0.0000000000000000e+00  0.0000000000000000e+00 0.0000000000000000e+00 0.0000000000000000e+00  0.0000000000000000e+00 3.2168556083086520e-16 0.0000000000000000e+00  0.0000000000000000e+00 0.0000000000000000e+00 0.0000000000000000e+00  0.0000000000000000e+00 0.0000000000000000e+00 0.0000000000000000e+00  0.0000000000000000e+00 0.0000000000000000e+00 0.0000000000000000e+00  0.0000000000000000e+00 -1.6745317628088172e-15 0.0000000000000000e+00  0.0000000000000000e+00 0.0000000000000000e+00 0.0000000000000000e+00  1.1249999999999993e+00 0.0000000000000000e+00 0.0000000000000000e+00  1.5000000000000016e+00 0.0000000000000000e+00 0.0000000000000000e+00  1.1250000000000031e+00 0.0000000000000000e+00 0.0000000000000000e+00  0.0000000000000000e+00 0.0000000000000000e+00 0.0000000000000000e+00  4.1312855294540697e-15 5.1641053517581900e-16 0.0000000000000000e+00  0.0000000000000000e+00 0.0000000000000000e+00 0.0000000000000000e+00  0.0000000000000000e+00 0.0000000000000000e+00 0.0000000000000000e+00  0.0000000000000000e+00 0.0000000000000000e+00 0.0000000000000000e+00  -5.3728899182253501e-16 0.0000000000000000e+00 0.0000000000000000e+00  0.0000000000000000e+00 0.0000000000000000e+00 0.0000000000000000e+00  -4.3458637450612208e-16 0.0000000000000000e+00 0.0000000000000000e+00  1.2548589807343919e+00 -3.2701305181122120e-01 0.0000000000000000e+00  1.4202797762603889e+00 4.9578373747120694e-05 0.0000000000000000e+00  1.4473151282170587e+00 5.3697058661995596e-06 0.0000000000000000e+00  1.4599981081673683e+00 7.7430280940926917e-05 0.0000000000000000e+00  1.4889375262110005e+00 1.9571772915004211e-06 0.0000000000000000e+00  1.4928172395972723e+00 9.8593109326543135e-05 0.0000000000000000e+00  1.4998220106856823e+00 3.6946214921099984e-08 0.0000000000000000e+00  1.5000918952630151e+00 -8.1317559139994593e-05 0.0000000000000000e+00  1.4999960166075246e+00 -2.9978751869436321e-07 0.0000000000000000e+00  1.4999141145377659e+00 -1.1650248654093602e-03 0.0000000000000000e+00  1.4999999142681815e+00 -1.7367552600262493e-07 0.0000000000000000e+00  1.4591182565107654e+00 -8.1669027352970248e-03 0.0000000000000000e+00  1.4923530657089992e+00 -4.9429192344358731e-08 0.0000000000000000e+00  1.4889776195660129e+00 -1.1688890907842792e-08 0.0000000000000000e+00  1.4953954493975303e+00 7.6350560647838604e-10 0.0000000000000000e+00  1.4285709654927230e+00 -4.2934880594993063e-01 0.0000000000000000e+00  1.7555206327213564e+00 -2.7563313129511913e-01 0.0000000000000000e+00  1.4163696358127043e+00 5.9105308838221965e-10 0.0000000000000000e+00  9.7468252404264910e-01 3.7124570355007246e-10 0.0000000000000000e+00  1.2752801229876800e+00 5.6415860087569203e-01 0.0000000000000000e+00  1.5557265391783826e+00 -2.9604359553227022e-01 0.0000000000000000e+00  1.0826429545647143e+00 2.9463408364443333e-01 0.0000000000000000e+00  8.2733450355629534e-01 -4.1557999468068874e-01 0.0000000000000000e+00  1.2183851642343173e+00 -2.3619903537580488e-02 0.0000000000000000e+00  1.1315615151120322e+00 -6.1014387763570244e-01 0.0000000000000000e+00  3.4035635263277292e-01 2.2125684255298461e-01 0.0000000000000000e+00  9.3398474645737617e-01 -1.3819816221551554e-08 0.0000000000000000e+00  1.1610548733646802e+00 -5.5388105516253181e-09 0.0000000000000000e+00  1.0771906650097056e+00 -5.6434505721234022e-08 0.0000000000000000e+00  1.1629099445730380e+00 -2.1416074507310326e-03 0.0000000000000000e+00  1.1175883381049336e+00 -1.4148509606906506e-07 0.0000000000000000e+00  1.1346705203845384e+00 -7.7503469214100536e-05 0.0000000000000000e+00  1.0696131971149654e+00 -1.4628205671441163e-07 0.0000000000000000e+00  1.1871706259878074e+00 9.8252533195686747e-05 0.0000000000000000e+00  1.1964831638218378e+00 4.2524521654373650e-06 0.0000000000000000e+00  1.3814888350732542e+00 4.1358856643263669e-05 0.0000000000000000e+00  9.4340110074992345e-01 4.0765002049200131e-05 0.0000000000000000e+00  1.3186291169486921e+00 8.2550020804168502e-07 0.0000000000000000e+00  1.2101792219866392e+00 5.5162305883425125e-10 0.0000000000000000e+00  1.2389894990063297e+00 -2.8708463696208481e-09 0.0000000000000000e+00  1.1419408024264730e+00 -1.1000620284473008e-08 0.0000000000000000e+00  1.0218142147409321e+00 1.1035266618487986e-07 0.0000000000000000e+00  1.1453787198927539e+00 -4.2371157629631979e-08 0.0000000000000000e+00  1.0725890353334981e+00 4.6750018268393273e-05 0.0000000000000000e+00  1.1280885838324295e+00 -1.1210764031339878e-07 0.0000000000000000e+00  1.1638683885619341e+00 -6.4775342908714249e-04 0.0000000000000000e+00  1.1151380934048953e+00 -1.8211964100037816e-07 0.0000000000000000e+00  1.1377640315780013e+00 -4.6341472657719938e-04 0.0000000000000000e+00  1.1237252839902272e+00 -3.4543297179406671e-05 0.0000000000000000e+00  1.1486018353106486e+00 1.7026820651082728e-10 0.0000000000000000e+00  1.3678575407271756e+00 -1.0942795706523925e-01 0.0000000000000000e+00  6.0227183171047893e-01 5.4928759196984334e-01 0.0000000000000000e+00  1.0693518374981714e+00 9.0995213039218545e-06 0.0000000000000000e+00  1.0377534223323754e+00 -1.1488123364966198e-01 0.0000000000000000e+00  1.4973412560429975e+00 -6.1012829210893692e-03 0.0000000000000000e+00  1.3948795592436332e+00 5.6359717957120223e-10 0.0000000000000000e+00  1.4866219058191978e+00 -1.2327304578145286e-09 0.0000000000000000e+00  6.3103431290984302e-01 -1.0415785869620470e-01 0.0000000000000000e+00  1.5427290838539895e+00 3.3009001791288523e-01 0.0000000000000000e+00  3.1529622200843299e-01 -2.9269703087586102e-01 0.0000000000000000e+00  1.2047772322792758e+00 7.8262840450869217e-02 0.0000000000000000e+00  9.3642686499335170e-01 2.5984929036490574e-05 0.0000000000000000e+00  1.4378957751109243e+00 9.6886930587057886e-05 0.0000000000000000e+00  9.1016796647909826e-01 1.2658187675090156e-06 0.0000000000000000e+00  8.4145836703658627e-01 1.5621775284401912e-05 0.0000000000000000e+00  8.2402955358078411e-01 1.9825692501699404e-10 0.0000000000000000e+00  1.1912590919649542e+00 1.0489974816446640e-02 0.0000000000000000e+00  7.6059923512682470e-01 7.9570780687858742e-08 0.0000000000000000e+00  1.7047694226316683e+00 -1.9350378875365820e-01 0.0000000000000000e+00  1.8948212980443937e+00 -1.1271896999340203e-02 0.0000000000000000e+00  1.4927321707464709e+00 2.1551674339781955e-05 0.0000000000000000e+00  9.3778986123150965e-01 -9.3577617410061078e-11 0.0000000000000000e+00  1.0145057298191504e+00 1.3239728086404179e-05 0.0000000000000000e+00  1.1809909335531485e+00 2.5564852143295691e-01 0.0000000000000000e+00  1.0042061140749263e+00 5.5243591500092948e-01 0.0000000000000000e+00  1.1461595846627322e+00 5.4723050941671225e-01 0.0000000000000000e+00  1.7653121026050587e+00 3.6593223009159619e-02 0.0000000000000000e+00  1.0984588462402158e+00 -5.7242058569242138e-01 0.0000000000000000e+00  1.7767587194482384e+00 4.6636129636640400e-01 0.0000000000000000e+00  1.1099994378703866e+00 1.0998364244165369e-01 0.0000000000000000e+00  1.2391341933015181e+00 -4.2144445870427388e-01 0.0000000000000000e+00  1.3645913372872123e+00 2.3090914973509579e-02 0.0000000000000000e+00  7.3384718596530618e-01 1.6878755169332006e-02 0.0000000000000000e+00  7.7348803404981148e-01 1.9742805414913618e-10 0.0000000000000000e+00  1.2967966769065558e+00 4.1920648592699355e-10 0.0000000000000000e+00  1.4790924088862911e+00 5.3073773679149475e-10 0.0000000000000000e+00  1.4062499997447000e+00 4.4285326925137214e-10 0.0000000000000000e+00  5.4983050945768286e-01 1.1480159493874627e-10 0.0000000000000000e+00  5.4983050972957792e-01 1.3579011556778765e-10 0.0000000000000000e+00  0.0000000000000000e+00 3.0114626223820690e-16 0.0000000000000000e+00  1.1564323776243968e+00 -4.9540566912955546e-02 0.0000000000000000e+00  9.3252649239103369e-01 -1.0774342340625777e-01 0.0000000000000000e+00  0.0000000000000000e+00 0.0000000000000000e+00 0.0000000000000000e+00  7.4037677481890840e-01 1.1424576459031786e-01 0.0000000000000000e+00  5.2792835765944657e-01 5.4627212559744898e-02 0.0000000000000000e+00  0.0000000000000000e+00 -5.0502196163629997e-16 0.0000000000000000e+00  1.0639865915277182e+00 2.3037758179389714e-01 0.0000000000000000e+00  6.5625000000000000e-01 0.0000000000000000e+00 0.0000000000000000e+00  1.6007143477333725e+00 -4.1481494813411396e-01 0.0000000000000000e+00  1.0905613910299850e+00 -1.0841953378775840e-01 0.0000000000000000e+00  1.1408715911753740e+00 -1.7078185621043415e-01 0.0000000000000000e+00  1.3080165258844019e+00 4.9474638428120937e-01 0.0000000000000000e+00  1.2801170641124320e+00 3.5770711715987302e-01 0.0000000000000000e+00  1.2508173434749497e+00 -5.3242500691013228e-01 0.0000000000000000e+00  1.1057099814470881e+00 -3.9292727759650081e-01 0.0000000000000000e+00  1.3245050932671236e+00 -4.1814656943998479e-01 0.0000000000000000e+00  1.6772186661564319e+00 -4.9625291698836138e-01 0.0000000000000000e+00  1.4144985566581194e+00 -5.7583829391128372e-01 0.0000000000000000e+00  1.3287947176636072e+00 6.3138180356515495e-10 0.0000000000000000e+00  1.4446590342063899e+00 7.2211562048246562e-10 0.0000000000000000e+00  1.4877530020798682e+00 7.6621943044553645e-10 0.0000000000000000e+00  1.0659981413504640e+00 4.3138174572686747e-10 0.0000000000000000e+00  6.7414314272830889e-01 1.5404888955726305e-10 0.0000000000000000e+00  1.3908869454973325e+00 5.1989760463255450e-10 0.0000000000000000e+00  1.3429285860600164e+00 6.6797149230064099e-10 0.0000000000000000e+00  1.3536468146633911e+00 -6.1427199908440248e-02 0.0000000000000000e+00  1.4320787500366949e+00 -3.9331605124846541e-02 0.0000000000000000e+00  1.4360208598162234e+00 -3.0531932581578013e-02 0.0000000000000000e+00  1.4737198898877517e+00 5.2325313343742411e-10 0.0000000000000000e+00  1.2806973291698942e+00 4.0696739440332068e-10 0.0000000000000000e+00  1.4062500002557223e+00 4.4298490009995109e-10 0.0000000000000000e+00  1.4609486760384414e+00 -2.5314608027326227e-09 0.0000000000000000e+00  1.4999715047448889e+00 -4.8224630776568033e-09 0.0000000000000000e+00  1.4051731435218946e+00 -6.5978948550261878e-09 0.0000000000000000e+00  1.3782500699055666e+00 -3.5157484257958750e-09 0.0000000000000000e+00  1.4430694640216570e+00 -1.0231567115285002e-08 0.0000000000000000e+00  1.4160931232344167e+00 -2.1160399986532115e-03 0.0000000000000000e+00  1.4997527506364188e+00 -2.8415951605671114e-03 0.0000000000000000e+00  1.4110224166138305e+00 -1.5858165592406714e-03 0.0000000000000000e+00  1.2402185896520901e+00 -2.4628306412421866e-01 0.0000000000000000e+00  1.2786746617837434e+00 -2.3897379764397164e-01 0.0000000000000000e+00  4.0799320286168755e-01 3.6494863951569889e-01 0.0000000000000000e+00  3.1682288810054132e-01 3.7867636591706644e-01 0.0000000000000000e+00  0.0000000000000000e+00 0.0000000000000000e+00 0.0000000000000000e+00  1.7797154542143226e-01 2.3158266468562960e-01 0.0000000000000000e+00  1.1258426768826095e-01 9.3687345411858719e-02 0.0000000000000000e+00  0.0000000000000000e+00 0.0000000000000000e+00 0.0000000000000000e+00  9.0806085870635500e-01 -5.6500285842880782e-01 0.0000000000000000e+00  1.4259431779765472e+00 5.8463483103780761e-05 0.0000000000000000e+00  1.4990427713210301e+00 5.2261136557630628e-05 0.0000000000000000e+00  1.4983066472033313e+00 6.9242555517455142e-05 0.0000000000000000e+00  1.3923825359900839e+00 3.3519902599721738e-06 0.0000000000000000e+00  1.4741770079001320e+00 6.3152229328918815e-06 0.0000000000000000e+00  1.4961340501417819e+00 3.5374935280952754e-06 0.0000000000000000e+00  1.1140887915663908e+00 1.1433464394683895e-06 0.0000000000000000e+00  1.3413219188955341e+00 7.8258506170564012e-07 0.0000000000000000e+00  6.1779660935323266e-01 1.5872537285372521e-05 0.0000000000000000e+00  6.1782365615856150e-01 1.2133173542476559e-05 0.0000000000000000e+00  0.0000000000000000e+00 -7.2369502725646238e-16 0.0000000000000000e+00  1.3636140609794893e+00 7.5800756281813216e-05 0.0000000000000000e+00  1.3177738050335752e+00 7.0895973011727049e-05 0.0000000000000000e+00  1.4797174195057619e+00 9.7397353088675922e-05 0.0000000000000000e+00  1.0985752588232724e+00 3.0068558296622180e-05 0.0000000000000000e+00  1.3781291381927017e+00 3.8121040629618508e-05 0.0000000000000000e+00  6.5530405822263860e-01 -4.8674510976391875e-06 0.0000000000000000e+00  5.8199191062151023e-01 -5.0719644061227809e-08 0.0000000000000000e+00  5.8199186844645567e-01 3.3844448912893103e-09 0.0000000000000000e+00  -3.1327890699937835e-16 0.0000000000000000e+00 0.0000000000000000e+00  1.3757962749805943e+00 1.5119992125199014e-07 0.0000000000000000e+00  1.4964882569691957e+00 6.7665589338800070e-07 0.0000000000000000e+00  1.0697412078428212e+00 -1.3085254651048231e-07 0.0000000000000000e+00  1.3996017308352564e+00 -2.2008455559668212e-07 0.0000000000000000e+00  6.4888551783379822e-01 -6.7580832804973818e-08 0.0000000000000000e+00  6.5525139720470793e-01 -5.7145060016759895e-05 0.0000000000000000e+00  0.0000000000000000e+00 0.0000000000000000e+00 0.0000000000000000e+00  1.4054541660124631e+00 -7.3681462933285308e-05 0.0000000000000000e+00  1.4981744525017493e+00 5.3638974953510221e-05 0.0000000000000000e+00  1.1308415431525505e+00 -1.9015904534705754e-04 0.0000000000000000e+00  1.4090190909494416e+00 -3.4415795827472828e-04 0.0000000000000000e+00  6.6585487458609016e-01 -1.5050596807935729e-04 0.0000000000000000e+00  6.4888562581892451e-01 -5.4238287456348286e-08 0.0000000000000000e+00  0.0000000000000000e+00 0.0000000000000000e+00 0.0000000000000000e+00  1.4031644485584047e+00 -2.7044746411615151e-07 0.0000000000000000e+00  1.4999411938524396e+00 -2.6266024860250353e-07 0.0000000000000000e+00  1.1216410522841509e+00 -1.5410719122680366e-07 0.0000000000000000e+00  1.4064125898408257e+00 -2.2852938949184805e-07 0.0000000000000000e+00  6.5856961848965223e-01 -3.9018996591616368e-08 0.0000000000000000e+00  1.3930664991841810e+00 2.8887979034366266e-10 0.0000000000000000e+00  1.4994286257218579e+00 2.9288874826197119e-10 0.0000000000000000e+00  6.8374664675188945e-01 -2.2183980795017509e-09 0.0000000000000000e+00  6.8374664410468411e-01 -8.0146936585716590e-10 0.0000000000000000e+00  0.0000000000000000e+00 0.0000000000000000e+00 0.0000000000000000e+00  1.3878966715355876e+00 -2.0508195200405610e-08 0.0000000000000000e+00  1.4999230804273977e+00 -2.5874135433254541e-08 0.0000000000000000e+00  5.2278400202720876e-01 -5.2842140199828331e-09 0.0000000000000000e+00  5.2278399274321363e-01 -2.6252479555505295e-09 0.0000000000000000e+00  0.0000000000000000e+00 0.0000000000000000e+00 0.0000000000000000e+00  1.0547575567039413e+00 -9.4337068369553439e-09 0.0000000000000000e+00  1.3236896161760203e+00 -3.3904057857526831e-08 0.0000000000000000e+00  6.2110991343071398e-01 -2.2569403029206782e-08 0.0000000000000000e+00  6.2110987996034417e-01 -1.3450665645447444e-08 0.0000000000000000e+00  0.0000000000000000e+00 0.0000000000000000e+00 0.0000000000000000e+00  1.0081938985591967e+00 -2.9436729848693463e-08 0.0000000000000000e+00  1.3639553392146679e+00 -6.2943640790801516e-08 0.0000000000000000e+00  1.3943928710554496e+00 -1.2238531092767414e-07 0.0000000000000000e+00  1.4981010497627889e+00 -9.9036161760210154e-08 0.0000000000000000e+00  6.8550865233304170e-01 -1.1231291130213024e-03 0.0000000000000000e+00  6.8431021786743862e-01 -3.1728304998835142e-04 0.0000000000000000e+00  0.0000000000000000e+00 0.0000000000000000e+00 0.0000000000000000e+00  1.4141393679665912e+00 -5.1889895237080532e-03 0.0000000000000000e+00  1.4206106905953158e+00 -1.8313330651381686e-03 0.0000000000000000e+00  6.5070943755757060e-01 -5.5312731639216620e-08 0.0000000000000000e+00  6.5070935668482421e-01 -3.9303036063342986e-08 0.0000000000000000e+00  0.0000000000000000e+00 0.0000000000000000e+00 0.0000000000000000e+00  1.0976429885074006e+00 -9.4049946936603109e-08 0.0000000000000000e+00  1.4044876346059951e+00 -1.8673582446994103e-07 0.0000000000000000e+00  1.4050131870568661e+00 -2.4880195484346503e-07 0.0000000000000000e+00  1.4999986904238818e+00 -2.4559473220797886e-07 0.0000000000000000e+00  6.6338153184410187e-01 -2.8746664774741950e-05 0.0000000000000000e+00  6.6335248233196875e-01 3.3785841382938408e-05 0.0000000000000000e+00  0.0000000000000000e+00 0.0000000000000000e+00 0.0000000000000000e+00  1.1485886788649566e+00 -5.9428322329117508e-04 0.0000000000000000e+00  1.4137357406368734e+00 -5.6786622162485604e-04 0.0000000000000000e+00  1.4092854337746070e+00 -1.0738510535681719e-04 0.0000000000000000e+00  1.5000804075373861e+00 -4.3875729665825841e-04 0.0000000000000000e+00  6.1566336484676298e-01 -5.6105738357739027e-08 0.0000000000000000e+00  6.1566326263233806e-01 -6.2971402822654999e-08 0.0000000000000000e+00  0.0000000000000000e+00 0.0000000000000000e+00 0.0000000000000000e+00  1.0939550468331365e+00 -1.7480328433450933e-07 0.0000000000000000e+00  1.3930569832605717e+00 -2.6345