<?xml version="1.0"?>
<VTKFile type="UnstructuredGrid"  version="0.1"  >
<UnstructuredGrid>
<Piece  NumberOfPoints="525" NumberOfCells="924">
<Points>
<DataArray  type="Float64"  NumberOfComponents="3"  format="ascii">0 0 0  2.2 0 0  2.2 0.41 0  0 0.41 0  0.15 0.2 0  0.25 0.2 0  0.2 0.15 0  0.2 0.25 0  0.104762 0 0  0.209524 0 0  0.314286 0 0  0.419048 0 0  0.52381 0 0  0.628571 0 0  0.733333 0 0  0.838095 0 0  0.9428569999999999 0 0  1.04762 0 0  1.15238 0 0  1.25714 0 0  1.3619 0 0  1.46667 0 0  1.57143 0 0  1.67619 0 0  1.78095 0 0  1.88571 0 0  1.99048 0 0  2.09524 0 0  2.2 0.1025 0  2.2 0.205 0  2.2 0.3075 0  2.1 0.41 0  2 0.41 0  1.9 0.41 0  1.8 0.41 0  1.7 0.41 0  1.6 0.41 0  1.5 0.41 0  1.4 0.41 0  1.3 0.41 0  1.2 0.41 0  1.1 0.41 0  1 0.41 0  0.9 0.41 0  0.8 0.41 0  0.7 0.41 0  0.6 0.41 0  0.5 0.41 0  0.4 0.41 0  0.3 0.41 0  0.2 0.41 0  0.1 0.41 0  0 0.3075 0  0 0.205 0  0 0.1025 0  0.1566987973585577 0.2250001169958213 0  0.1749998830041787 0.2433012026414423 0  0.2250001169958213 0.2433012026414423 0  0.2433012026414423 0.2250001169958213 0  0.2433012026414423 0.1749998830041787 0  0.2250001169958213 0.1566987973585577 0  0.1749998830041787 0.1566987973585577 0  0.1566987973585577 0.1749998830041787 0  0.352033 0.262216 0  1.04579 0.252253 0  1.24065 0.243419 0  0.985775 0.171509 0  1.30324 0.187395 0  0.890988 0.190768 0  1.39085 0.202767 0  0.801464 0.204685 0  1.49904 0.204666 0  0.704267 0.202289 0  1.60238 0.204951 0  0.487789 0.19191 0  1.72935 0.219637 0  1.83335 0.187427 0  2.03359 0.193642 0  0.314663 0.307348 0  0.249039 0.333583 0  2.12147 0.253405 0  2.06373 0.0836837 0  0.0734726 0.267055 0  0.143989 0.0677174 0  0.0613613 0.33781 0  0.299628 0.236829 0  0.527114 0.295386 0  0.262384 0.26549 0  0.275777 0.18341 0  1.74578 0.330928 0  1.84001 0.302448 0  1.64998 0.313838 0  0.648421 0.302367 0  1.54544 0.308508 0  0.755686 0.306156 0  1.42668 0.314809 0  0.870524 0.298596 0  1.22553 0.112785 0  1.05603 0.147372 0  0.969346 0.329867 0  1.32527 0.276284 0  2.02914 0.29511 0  1.88168 0.119486 0  1.79545 0.104842 0  1.35688 0.0892539 0  1.69041 0.105324 0  0.914199 0.09555660000000001 0  1.58234 0.102923 0  0.61843 0.10815 0  1.47999 0.101161 0  0.725217 0.104273 0  0.821727 0.102306 0  1.96725 0.105778 0  0.418624 0.241547 0  0.135226 0.239087 0  1.14921 0.314841 0  0.404508 0.333259 0  0.590155 0.206269 0  2.12554 0.150731 0  1.93166 0.22436 0  0.104689 0.190046 0  0.267856 0.07447529999999999 0  0.269368 0.221581 0  0.434446 0.114927 0  1.0089 0.07933809999999999 0  0.953023 0.246698 0  1.25853 0.33355 0  1.05268 0.340828 0  2.1369 0.067383 0  0.522398 0.112537 0  1.3421 0.348929 0  0.215186 0.289473 0  0.203197 0.335348 0  1.13984 0.190728 0  1.93813 0.330504 0  1.10505 0.0883705 0  0.341988 0.0824728 0  0.253113 0.138035 0  0.291932 0.131907 0  0.203713 0.102439 0  0.150375 0.134668 0  0.151494 0.309119 0  0.354384 0.17896 0  0.06853670000000001 0.100776 0  0.424128 0.180088 0  0.474925 0.0568661 0  2.10843 0.347669 0  2.160735 0.2804525 0  2.160735 0.2292025 0  2.2 0.25625 0  2.079485 0.04184185 0  2.027105 0.04184185 0  2.04286 0 0  0.1767565 0.0338587 0  0.1243755 0.0338587 0  0.157143 0 0  0.08068065000000001 0.373905 0  0.03068065 0.373905 0  0.05 0.41 0  0.03068065 0.322655 0  0 0.35875 0  0.281851 0.3204655 0  0.2745195 0.3717915 0  0.3073315 0.358674 0  0.06741695 0.3024325 0  0.0367363 0.2872775 0  0.3071455 0.2720885 0  0.3258305 0.2495225 0  0.333348 0.284782 0  0.2557115 0.2995365 0  0.2885235 0.286419 0  2.075305 0.2742575 0  2.031365 0.244376 0  2.07753 0.2235235 0  2.01549 0.09473085000000001 0  1.978865 0.052889 0  2.00042 0.14971 0  2.04866 0.13866285 0  0.472869 0.2684665 0  0.4532065 0.2167285 0  0.5074514999999999 0.243648 0  2.16277 0.1778655 0  2.16277 0.1266155 0  2.2 0.15375 0  1.90667 0.171923 0  1.882505 0.2058935 0  1.857515 0.1534565 0  1.885835 0.263404 0  1.83668 0.2449375 0  0.6042925 0.1572095 0  0.647211 0.204279 0  0.6613485 0.1552195 0  0.3595855 0.3203035 0  0.3782705 0.2977375 0  0.155113 0.241194 0  0.1459625 0.2320435 0  0.1646446609406726 0.2353553390593274 0  0.259539 0.179205 0  0.2628885 0.191705 0  0.2482962819455563 0.1870590127797247 0  0.281006 0.2511595 0  1.0209025 0.1594405 0  1.05091 0.1998125 0  1.0157825 0.211881 0  1.264385 0.15009 0  1.23309 0.178102 0  1.271945 0.215407 0  1.291205 0.10101945 0  1.33006 0.13832445 0  0.928528 0.0477783 0  0.876147 0.0477783 0  0.890476 0 0  0.9025935 0.1431623 0  0.9499869999999999 0.1335328 0  0.9383815 0.1811385 0  0.867963 0.0989313 0  0.8563575 0.146537 0  0.8299110000000001 0.051153 0  1.411775 0.04462695 0  1.35939 0.04462695 0  1.414285 0 0  1.373865 0.14601045 0  1.347045 0.195081 0  1.418435 0.09520745 0  1.43542 0.151964 0  1.47333 0.0505805 0  0.7775300000000001 0.051153 0  0.785714 0 0  0.8115954999999999 0.1534955 0  0.8462259999999999 0.1977265 0  0.7734719999999999 0.1032895 0  0.7633405 0.154479 0  0.729275 0.0521365 0  1.52571 0.0505805 0  1.51905 0 0  1.489515 0.1529135 0  1.444945 0.2037165 0  1.531165 0.102042 0  1.54069 0.1537945 0  1.576885 0.0514615 0  1.9804 0.259735 0  1.982625 0.209001 0  1.820005 0.356224 0  1.870005 0.356224 0  1.85 0.41 0  1.78468 0.2610425 0  1.78135 0.203532 0  1.72289 0.370464 0  1.77289 0.370464 0  1.75 0.41 0  1.792895 0.316688 0  1.737565 0.2752825 0  1.62499 0.361919 0  1.67499 0.361919 0  1.65 0.41 0  1.69788 0.322383 0  1.689665 0.2667375 0  1.62618 0.2593945 0  1.665865 0.212294 0  0.6242105 0.3561835 0  0.6742105 0.3561835 0  0.6499999999999999 0.41 0  0.6192880000000001 0.254318 0  0.6763440000000001 0.252328 0  1.52272 0.359254 0  1.57272 0.359254 0  1.55 0.41 0  1.59771 0.311173 0  1.57391 0.2567295 0  1.52224 0.256587 0  1.55071 0.2048085 0  0.727843 0.358078 0  0.7778430000000001 0.358078 0  0.75 0.41 0  0.7020535 0.3042615 0  0.7299765 0.2542225 0  0.778575 0.2554205 0  0.7528655 0.203487 0  1.41334 0.3624045 0  1.46334 0.3624045 0  1.45 0.41 0  1.48606 0.3116585 0  1.46286 0.2597375 0  1.408765 0.258788 0  0.8352619999999999 0.354298 0  0.885262 0.354298 0  0.8500000000000001 0.41 0  0.813105 0.302376 0  0.8359939999999999 0.2516405 0  0.880756 0.244682 0  0.9346730000000001 0.3699335 0  0.984673 0.3699335 0  0.95 0.41 0  0.9199349999999999 0.3142315 0  0.676894 0.0521365 0  0.680952 0 0  0.714742 0.153281 0  0.6718235 0.1062115 0  0.6235005 0.054075 0  1.629265 0.0514615 0  1.62381 0 0  1.59236 0.153937 0  1.636375 0.1041235 0  1.646395 0.1551375 0  1.6833 0.052662 0  1.73568 0.052662 0  1.72857 0 0  1.70988 0.1624805 0  1.74293 0.105083 0  1.7624 0.1622395 0  1.7882 0.052421 0  1.84058 0.052421 0  1.83333 0 0  1.8144 0.1461345 0  1.838565 0.112164 0  1.883695 0.059743 0  1.124605 0.3624205 0  1.174605 0.3624205 0  1.15 0.41 0  1.314255 0.2318395 0  1.28296 0.2598515 0  1.35806 0.2395255 0  1.375975 0.2955465 0  1.92648 0.052889 0  1.938095 0 0  1.924465 0.112632 0  1.949455 0.165069 0  0.352254 0.3716295 0  0.402254 0.3716295 0  0.35 0.41 0  0.513557 0.352693 0  0.563557 0.352693 0  0.55 0.41 0  0.5877675 0.2988765 0  0.5586344999999999 0.2508275 0  0.538972 0.1990895 0  0.452254 0.3716295 0  0.45 0.41 0  0.465811 0.3143225 0  0.411566 0.287403 0  0.3853285 0.2518815 0  0.1199575 0.2145665 0  0.0890808 0.2285505 0  0.1043493 0.253071 0  0.2245195 0.3717915 0  0.25 0.41 0  0.291071 0.03723765 0  0.23869 0.03723765 0  0.261905 0 0  0.265876 0.2435355 0  0.2563345 0.2232905 0  0.2528425 0.245245 0  0.284498 0.229205 0  1.032465 0.11335505 0  0.9973375 0.12542355 0  0.9615494999999999 0.08744735000000001 0  0.9220055 0.218733 0  0.9693989999999999 0.2091035 0  0.9611845 0.2882825 0  0.9117735 0.272647 0  1.229265 0.371775 0  1.279265 0.371775 0  1.25 0.41 0  1.02634 0.375414 0  1.07634 0.375414 0  1.05 0.41 0  1.011013 0.3353475 0  2.11607 0.0336915 0  2.16845 0.0336915 0  2.14762 0 0  2.16845 0.0849415 0  2.2 0.05125 0  2.100315 0.07553335 0  0.5562765000000001 0.159403 0  0.570414 0.1103435 0  0.5050935 0.1522235 0  1.32105 0.3794645 0  1.37105 0.3794645 0  1.35 0.41 0  1.333685 0.3126065 0  1.38439 0.331869 0  0.9994065 0.2494755 0  1.007568 0.29106 0  1.300315 0.3412395 0  1.2919 0.304917 0  2.13122 0.109057 0  2.094635 0.11720735 0  0.2725725 0.2024955 0  0.259684 0.2107905 0  0.2482962819455563 0.2129409872202754 0  0.2877025 0.2101195 0  2.123505 0.202068 0  2.079565 0.1721865 0  1.02826 0.03966905 0  0.9758784999999999 0.03966905 0  0.9952384999999999 0 0  1.049235 0.2965405 0  1.100945 0.3278345 0  1.0975 0.283547 0  0.5711200000000001 0.054075 0  0.5761905 0 0  0.523104 0.0562685 0  1.24959 0.2884845 0  1.20387 0.3241955 0  1.19493 0.27913 0  0.238785 0.2774815 0  0.2321125 0.311528 0  0.226118 0.3344655 0  0.2015985 0.3726739999999999 0  1.144525 0.2527845 0  1.190245 0.2170735 0  1.092815 0.2214905 0  0.2091915 0.3124105 0  0.220093 0.266387 0  0.243692 0.2543955 0  0.2353553390593274 0.2353553390593274 0  0.478422 0.113732 0  0.4611175 0.1534185 0  1.919065 0.370252 0  1.969065 0.370252 0  1.95 0.41 0  1.983635 0.312807 0  2.01457 0.352555 0  1.88907 0.316476 0  1.934895 0.277432 0  1.182685 0.1517565 0  1.097935 0.16905 0  1.128715 0.04418525 0  1.076335 0.04418525 0  1.1 0 0  1.056975 0.08385429999999999 0  1.08054 0.11787125 0  1.122445 0.13954925 0  1.16529 0.10057775 0  0.304922 0.07847404999999999 0  0.328137 0.0412364 0  0.380518 0.0412364 0  0.366667 0 0  0.388217 0.09869990000000001 0  0.426747 0.0574635 0  0.31696 0.1071899 0  0.279894 0.10319115 0  0.2725225 0.134971 0  0.2604845 0.10625515 0  0.228413 0.120237 0  0.2143565 0.129569 0  0.2390565 0.147367 0  1.30701 0.04462695 0  1.30952 0 0  1.241335 0.0563925 0  0.2357845 0.08845715 0  1.188955 0.0563925 0  1.20476 0 0  0.2066185 0.0512195 0  0.173851 0.08507819999999999 0  0.0367363 0.2360275 0  0 0.25625 0  0.264445 0.1607225 0  0.248207 0.1565175 0  0.2353553390593274 0.1646446609406726 0  0.2838545 0.1576585 0  0.130694 0.182523 0  0.1273445 0.195023 0  0.1517037180544437 0.1870590127797247 0  0.127532 0.162357 0  0.153537 0.154834 0  0.0523445 0.197523 0  0
[...]
<PointData  Vectors="u"> 
<DataArray  type="Float64"  Name="u"  NumberOfComponents="3" format="ascii">-4.7334013016951900e-15 7.7972117370652142e-15 0.0000000000000000e+00  0.0000000000000000e+00 0.0000000000000000e+00 0.0000000000000000e+00  0.0000000000000000e+00 0.0000000000000000e+00 0.0000000000000000e+00  -1.4604521598674123e-15 -2.0031920409348658e-15 0.0000000000000000e+00  0.0000000000000000e+00 0.0000000000000000e+00 0.0000000000000000e+00  0.0000000000000000e+00 0.0000000000000000e+00 0.0000000000000000e+00  0.0000000000000000e+00 0.0000000000000000e+00 0.0000000000000000e+00  0.0000000000000000e+00 0.0000000000000000e+00 0.0000000000000000e+00  0.0000000000000000e+00 -5.1690580207740881e-16 0.0000000000000000e+00  0.0000000000000000e+00 0.0000000000000000e+00 0.0000000000000000e+00  0.0000000000000000e+00 -1.2303036438485921e-15 0.0000000000000000e+00  0.0000000000000000e+00 0.0000000000000000e+00 0.0000000000000000e+00  0.0000000000000000e+00 -3.1466514550870650e-16 0.0000000000000000e+00  0.0000000000000000e+00 4.6093662373282726e-16 0.0000000000000000e+00  0.0000000000000000e+00 1.4522982444602169e-15 0.0000000000000000e+00  0.0000000000000000e+00 -3.0293132684878751e-16 0.0000000000000000e+00  0.0000000000000000e+00 0.0000000000000000e+00 0.0000000000000000e+00  0.0000000000000000e+00 0.0000000000000000e+00 0.0000000000000000e+00  0.0000000000000000e+00 0.0000000000000000e+00 0.0000000000000000e+00  0.0000000000000000e+00 0.0000000000000000e+00 0.0000000000000000e+00  0.0000000000000000e+00 0.0000000000000000e+00 0.0000000000000000e+00  0.0000000000000000e+00 0.0000000000000000e+00 0.0000000000000000e+00  -1.1299081170762312e-15 3.0763444739903805e-16 0.0000000000000000e+00  1.6823010746167711e-15 4.4662077653030339e-16 0.0000000000000000e+00  4.5156402592772355e-16 0.0000000000000000e+00 0.0000000000000000e+00  0.0000000000000000e+00 6.5662688178406214e-16 0.0000000000000000e+00  0.0000000000000000e+00 -7.7112107060657379e-16 0.0000000000000000e+00  0.0000000000000000e+00 0.0000000000000000e+00 0.0000000000000000e+00  1.1250000003583303e+00 3.0462809816833103e-10 0.0000000000000000e+00  1.5000000000001654e+00 4.9454911257900447e-10 0.0000000000000000e+00  1.1249999996418978e+00 3.0418851743266344e-10 0.0000000000000000e+00  0.0000000000000000e+00 0.0000000000000000e+00 0.0000000000000000e+00  0.0000000000000000e+00 -3.0590938469120517e-16 0.0000000000000000e+00  0.0000000000000000e+00 -8.3226298162147528e-16 0.0000000000000000e+00  0.0000000000000000e+00 0.0000000000000000e+00 0.0000000000000000e+00  0.0000000000000000e+00 0.0000000000000000e+00 0.0000000000000000e+00  0.0000000000000000e+00 0.0000000000000000e+00 0.0000000000000000e+00  0.0000000000000000e+00 0.0000000000000000e+00 0.0000000000000000e+00  0.0000000000000000e+00 0.0000000000000000e+00 0.0000000000000000e+00  0.0000000000000000e+00 0.0000000000000000e+00 0.0000000000000000e+00  0.0000000000000000e+00 0.0000000000000000e+00 0.0000000000000000e+00  0.0000000000000000e+00 0.0000000000000000e+00 0.0000000000000000e+00  0.0000000000000000e+00 4.3570561999683788e-16 0.0000000000000000e+00  0.0000000000000000e+00 0.0000000000000000e+00 0.0000000000000000e+00  0.0000000000000000e+00 4.1395792578876082e-16 0.0000000000000000e+00  0.0000000000000000e+00 4.3977280783270922e-16 0.0000000000000000e+00  0.0000000000000000e+00 0.0000000000000000e+00 0.0000000000000000e+00  0.0000000000000000e+00 0.0000000000000000e+00 0.0000000000000000e+00  -7.2689865122040212e-16 0.0000000000000000e+00 0.0000000000000000e+00  0.0000000000000000e+00 -1.5092255393423153e-15 0.0000000000000000e+00  0.0000000000000000e+00 3.1598556255307061e-16 0.0000000000000000e+00  0.0000000000000000e+00 0.0000000000000000e+00 0.0000000000000000e+00  1.1250000000000009e+00 0.0000000000000000e+00 0.0000000000000000e+00  1.5000000000000031e+00 0.0000000000000000e+00 0.0000000000000000e+00  1.1250000000000011e+00 0.0000000000000000e+00 0.0000000000000000e+00  0.0000000000000000e+00 0.0000000000000000e+00 0.0000000000000000e+00  0.0000000000000000e+00 -4.9809728321390634e-16 0.0000000000000000e+00  -3.7726864392679355e-16 0.0000000000000000e+00 0.0000000000000000e+00  0.0000000000000000e+00 0.0000000000000000e+00 0.0000000000000000e+00  0.0000000000000000e+00 0.0000000000000000e+00 0.0000000000000000e+00  8.0634669483522607e-16 0.0000000000000000e+00 0.0000000000000000e+00  0.0000000000000000e+00 0.0000000000000000e+00 0.0000000000000000e+00  -5.6036183158431429e-16 0.0000000000000000e+00 0.0000000000000000e+00  1.2548599376655507e+00 -3.2694620068756042e-01 0.0000000000000000e+00  1.4202797668267768e+00 4.9575635264330518e-05 0.0000000000000000e+00  1.4473151249496758e+00 5.3774958998949066e-06 0.0000000000000000e+00  1.4599981065804819e+00 7.7383976209166334e-05 0.0000000000000000e+00  1.4889375270381922e+00 1.9621646880951682e-06 0.0000000000000000e+00  1.4928172113303813e+00 9.8315842364089719e-05 0.0000000000000000e+00  1.4998220107217812e+00 3.8977637317821214e-08 0.0000000000000000e+00  1.5000918856814933e+00 -8.2201647198667022e-05 0.0000000000000000e+00  1.4999960166085842e+00 -2.9933673230675196e-07 0.0000000000000000e+00  1.4999141081007044e+00 -1.1673112029761453e-03 0.0000000000000000e+00  1.4999999142680764e+00 -1.7364171770541832e-07 0.0000000000000000e+00  1.4591249684365477e+00 -8.1692855639557624e-03 0.0000000000000000e+00  1.4923530657158854e+00 -4.9463168050225803e-08 0.0000000000000000e+00  1.4889776195624307e+00 -1.1708745181823979e-08 0.0000000000000000e+00  1.4953954493973611e+00 7.6117606440619144e-10 0.0000000000000000e+00  1.4285093932750532e+00 -4.2931083130274167e-01 0.0000000000000000e+00  1.7554426902950242e+00 -2.7564752138845977e-01 0.0000000000000000e+00  1.4163696358126463e+00 5.9045326151077581e-10 0.0000000000000000e+00  9.7468252404237943e-01 3.7071132410388439e-10 0.0000000000000000e+00  1.2752576534618718e+00 5.6413488691584279e-01 0.0000000000000000e+00  1.5558344079684905e+00 -2.9606456712673107e-01 0.0000000000000000e+00  1.0826448156914814e+00 2.9463595244222451e-01 0.0000000000000000e+00  8.2733959970504489e-01 -4.1548560631933196e-01 0.0000000000000000e+00  1.2183904892217965e+00 -2.3618844221975577e-02 0.0000000000000000e+00  1.1314932930235755e+00 -6.1010836228649601e-01 0.0000000000000000e+00  3.4043110181348185e-01 2.2139114084400216e-01 0.0000000000000000e+00  9.3398474648926066e-01 -1.3833326514864153e-08 0.0000000000000000e+00  1.1610548733780570e+00 -5.5500008470530908e-09 0.0000000000000000e+00  1.0771906650633025e+00 -5.6449136057266483e-08 0.0000000000000000e+00  1.1629125534434734e+00 -2.1432938144935062e-03 0.0000000000000000e+00  1.1175883381073717e+00 -1.4140254194815872e-07 0.0000000000000000e+00  1.1346713774908026e+00 -7.8265059827021860e-05 0.0000000000000000e+00  1.0696131965553319e+00 -1.4569258781057047e-07 0.0000000000000000e+00  1.1871707788235855e+00 9.8034508667822778e-05 0.0000000000000000e+00  1.1964831709424404e+00 4.2583149528579194e-06 0.0000000000000000e+00  1.3814888467428483e+00 4.1360483503973164e-05 0.0000000000000000e+00  9.4340109754294033e-01 4.0743937353192494e-05 0.0000000000000000e+00  1.3186291147724463e+00 8.2860044533310166e-07 0.0000000000000000e+00  1.2101792219875083e+00 5.5014101642158371e-10 0.0000000000000000e+00  1.2389894989982577e+00 -2.8796849577514980e-09 0.0000000000000000e+00  1.1419408024055793e+00 -1.1015712186324976e-08 0.0000000000000000e+00  1.0218142163690738e+00 1.1161428189015956e-07 0.0000000000000000e+00  1.1453787198480272e+00 -4.2392668363355172e-08 0.0000000000000000e+00  1.0725889818909011e+00 4.6666775456904158e-05 0.0000000000000000e+00  1.1280885837929830e+00 -1.1208007348844471e-07 0.0000000000000000e+00  1.1638647081877800e+00 -6.5085001562470055e-04 0.0000000000000000e+00  1.1151380935924664e+00 -1.8182579826409906e-07 0.0000000000000000e+00  1.1377627746088319e+00 -4.6450915882333208e-04 0.0000000000000000e+00  1.1237249383982246e+00 -3.4899576554947284e-05 0.0000000000000000e+00  1.1486018353079779e+00 1.6732342309095819e-10 0.0000000000000000e+00  1.3678751209411728e+00 -1.0940202476835025e-01 0.0000000000000000e+00  6.0214546684250736e-01 5.4913701818800476e-01 0.0000000000000000e+00  1.0693518237843822e+00 9.1063007143034735e-06 0.0000000000000000e+00  1.0377403502337870e+00 -1.1486380624454243e-01 0.0000000000000000e+00  1.4973424533342552e+00 -6.1056079619199203e-03 0.0000000000000000e+00  1.3948795592436904e+00 5.6304980195220867e-10 0.0000000000000000e+00  1.4866219058204735e+00 -1.2406956404822166e-09 0.0000000000000000e+00  6.3099573923607677e-01 -1.0429376367712032e-01 0.0000000000000000e+00  1.5427658358311802e+00 3.3014948114590431e-01 0.0000000000000000e+00  3.1529562654736853e-01 -2.9263681825196053e-01 0.0000000000000000e+00  1.2047706224444961e+00 7.8253683275179786e-02 0.0000000000000000e+00  9.3642688259887374e-01 2.5980148546989564e-05 0.0000000000000000e+00  1.4378957873215259e+00 9.6795562199175028e-05 0.0000000000000000e+00  9.1016796135971534e-01 1.2684217691649036e-06 0.0000000000000000e+00  8.4145834662070151e-01 1.5623966068771159e-05 0.0000000000000000e+00  8.2402955358105179e-01 1.9811733431897236e-10 0.0000000000000000e+00  1.1912521985548272e+00 1.0483304043748204e-02 0.0000000000000000e+00  7.6059923347449065e-01 8.0357857852082450e-08 0.0000000000000000e+00  1.7046246718946898e+00 -1.9354199733718344e-01 0.0000000000000000e+00  1.8947646654442116e+00 -1.1298454604941388e-02 0.0000000000000000e+00  1.4927321733518553e+00 2.1563939099968691e-05 0.0000000000000000e+00  9.3778986123535668e-01 -9.6224754736268173e-11 0.0000000000000000e+00  1.0145057476250445e+00 1.3245919568257757e-05 0.0000000000000000e+00  1.1809764427677192e+00 2.5565683527129313e-01 0.0000000000000000e+00  1.0043157896480790e+00 5.5257492396312036e-01 0.0000000000000000e+00  1.1462282149380607e+00 5.4733228271930556e-01 0.0000000000000000e+00  1.7654309432938051e+00 3.6647962616400985e-02 0.0000000000000000e+00  1.0984899839995119e+00 -5.7246052013215420e-01 0.0000000000000000e+00  1.7767092425479656e+00 4.6632268249682030e-01 0.0000000000000000e+00  1.1100551655460724e+00 1.1003018998953068e-01 0.0000000000000000e+00  1.2391618062817871e+00 -4.2151551084781275e-01 0.0000000000000000e+00  1.3646104304810196e+00 2.3096722967130608e-02 0.0000000000000000e+00  7.3383369508220542e-01 1.6874188055574051e-02 0.0000000000000000e+00  7.7348803404967315e-01 1.9726742450558935e-10 0.0000000000000000e+00  1.2967966769063179e+00 4.1887907055316545e-10 0.0000000000000000e+00  1.4790924088862090e+00 5.3029552403044003e-10 0.0000000000000000e+00  1.4062499997444493e+00 4.4251231495250880e-10 0.0000000000000000e+00  5.4983050945772083e-01 1.1469027486696704e-10 0.0000000000000000e+00  5.4983050972918879e-01 1.3553769305360346e-10 0.0000000000000000e+00  0.0000000000000000e+00 0.0000000000000000e+00 0.0000000000000000e+00  1.1565098470890531e+00 -4.9535258044653974e-02 0.0000000000000000e+00  9.3259423669596708e-01 -1.0775429163504983e-01 0.0000000000000000e+00  0.0000000000000000e+00 0.0000000000000000e+00 0.0000000000000000e+00  7.4038065328075631e-01 1.1424600465725730e-01 0.0000000000000000e+00  5.2792992008649697e-01 5.4629023685588640e-02 0.0000000000000000e+00  0.0000000000000000e+00 -9.7135987244219237e-16 0.0000000000000000e+00  1.0639873034868201e+00 2.3038232915923482e-01 0.0000000000000000e+00  6.5624999999999933e-01 0.0000000000000000e+00 0.0000000000000000e+00  1.6006309038509710e+00 -4.1480511738632292e-01 0.0000000000000000e+00  1.0905191809735264e+00 -1.0842142373821945e-01 0.0000000000000000e+00  1.1408218660600646e+00 -1.7077526217733757e-01 0.0000000000000000e+00  1.3080110574858170e+00 4.9474218000155956e-01 0.0000000000000000e+00  1.2801149250668051e+00 3.5770957896274930e-01 0.0000000000000000e+00  1.2507749192477959e+00 -5.3235687334368353e-01 0.0000000000000000e+00  1.1057137614271535e+00 -3.9284120677690321e-01 0.0000000000000000e+00  1.3244723399642233e+00 -4.1808667812366873e-01 0.0000000000000000e+00  1.6771079636192063e+00 -4.9625362787046756e-01 0.0000000000000000e+00  1.4144216467139388e+00 -5.7579589007570675e-01 0.0000000000000000e+00  1.3287947176638408e+00 6.3041513889589580e-10 0.0000000000000000e+00  1.4446590342069092e+00 7.1990712117578041e-10 0.0000000000000000e+00  1.4877530020799414e+00 7.6497361803297577e-10 0.0000000000000000e+00  1.0659981413493478e+00 4.3005592832687261e-10 0.0000000000000000e+00  6.7414314272681697e-01 1.5326915872381240e-10 0.0000000000000000e+00  1.3908869454961375e+00 5.1686641789378079e-10 0.0000000000000000e+00  1.3429285860595102e+00 6.6652236790777899e-10 0.0000000000000000e+00  1.3536547235995053e+00 -6.1418403658444247e-02 0.0000000000000000e+00  1.4320931369667249e+00 -3.9323718194682472e-02 0.0000000000000000e+00  1.4360280240562320e+00 -3.0530815270680092e-02 0.0000000000000000e+00  1.4737198898878447e+00 5.2282093790046548e-10 0.0000000000000000e+00  1.2806973291701533e+00 4.0665277424914411e-10 0.0000000000000000e+00  1.4062500002559648e+00 4.4264279878878910e-10 0.0000000000000000e+00  1.4609486760354962e+00 -2.5413834446722546e-09 0.0000000000000000e+00  1.4999715047450013e+00 -4.8357675280827964e-09 0.0000000000000000e+00  1.4051731435143051e+00 -6.6123309176849175e-09 0.0000000000000000e+00  1.3782500699116844e+00 -3.5264572923541957e-09 0.0000000000000000e+00  1.4430694640291681e+00 -1.0249724701925363e-08 0.0000000000000000e+00  1.4160911870319821e+00 -2.1205609656141759e-03 0.0000000000000000e+00  1.4997530173987896e+00 -2.8450295986921837e-03 0.0000000000000000e+00  1.4110209472979522e+00 -1.5888175415077676e-03 0.0000000000000000e+00  1.2401864843431729e+00 -2.4625145419584984e-01 0.0000000000000000e+00  1.2786604329988585e+00 -2.3893481268159450e-01 0.0000000000000000e+00  4.0786547960459418e-01 3.6482350491346038e-01 0.0000000000000000e+00  3.1671879909487721e-01 3.7853568355563122e-01 0.0000000000000000e+00  0.0000000000000000e+00 0.0000000000000000e+00 0.0000000000000000e+00  1.7802253883642447e-01 2.3168201942425609e-01 0.0000000000000000e+00  1.1261298697369805e-01 9.3769483072420168e-02 0.0000000000000000e+00  0.0000000000000000e+00 0.0000000000000000e+00 0.0000000000000000e+00  9.0802954121920920e-01 -5.6493709965564787e-01 0.0000000000000000e+00  1.4259431843024895e+00 5.8449044539311444e-05 0.0000000000000000e+00  1.4990427721365320e+00 5.2259252189523302e-05 0.0000000000000000e+00  1.4983066458796164e+00 6.9220840917526277e-05 0.0000000000000000e+00  1.3923825395239862e+00 3.3580068302473102e-06 0.0000000000000000e+00  1.4741770104068113e+00 6.3237257024682656e-06 0.0000000000000000e+00  1.4961340494629660e+00 3.5440875209033625e-06 0.0000000000000000e+00  1.1140887953178722e+00 1.1463304737059135e-06 0.0000000000000000e+00  1.3413219208671816e+00 7.8565373544369337e-07 0.0000000000000000e+00  6.1779660106658429e-01 1.5855527299209484e-05 0.0000000000000000e+00  6.1782358639767798e-01 1.2090161638673352e-05 0.0000000000000000e+00  0.0000000000000000e+00 3.1407236681623771e-16 0.0000000000000000e+00  1.3636139902098330e+00 7.5616535501235791e-05 0.0000000000000000e+00  1.3177737855485490e+00 7.0821738538811939e-05 0.0000000000000000e+00  1.4797174042254835e+00 9.7270514788522135e-05 0.0000000000000000e+00  1.0985751027466866e+00 2.9887125166670719e-05 0.0000000000000000e+00  1.3781289751953818e+00 3.7753148981850886e-05 0.0000000000000000e+00  6.5530386229972504e-01 -4.9631415983480021e-06 0.0000000000000000e+00  5.8199191103910541e-01 -5.0533557569746364e-08 0.0000000000000000e+00  5.8199186944500014e-01 3.7449818170617108e-09 0.0000000000000000e+00  0.0000000000000000e+00 0.0000000000000000e+00 0.0000000000000000e+00  1.3757962760073332e+00 1.5322629643885257e-07 0.0000000000000000e+00  1.4964882572493752e+00 6.7994035670770705e-07 0.0000000000000000e+00  1.0697412084898199e+00 -1.3019464853361226e-07 0.0000000000000000e+00  1.3996017312081217e+00 -2.1910207105822509e-07 0.0000000000000000e+00  6.4888551794346638e-01 -6.7488513663204573e-08 0.0000000000000000e+00  6.5525094119541549e-01 -5.7331487600607884e-05 0.0000000000000000e+00  0.0000000000000000e+00 9.2122328030416288e-16 0.0000000000000000e+00  1.4054538720463430e+00 -7.4358285908852171e-05 0.0000000000000000e+00  1.4981744191445141e+00 5.3123556629733896e-05 0.0000000000000000e+00  1.1308408537007453e+00 -1.9080176990320729e-04 0.0000000000000000e+00  1.4090185510728586e+00 -3.4532419475677748e-04 0.0000000000000000e+00  6.6585397552088854e-01 -1.5084074664827187e-04 0.0000000000000000e+00  6.4888562580791764e-01 -5.4205101151908772e-08 0.0000000000000000e+00  0.0000000000000000e+00 0.0000000000000000e+00 0.0000000000000000e+00  1.4031644486829284e+00 -2.7000326598914104e-07 0.0000000000000000e+00  1.4999411938621761e+00 -2.6164040538647863e-07 0.0000000000000000e+00  1.1216410523068576e+00 -1.5399177293354449e-07 0.0000000000000000e+00  1.4064125898602287e+00 -2.2835535618662963e-07 0.0000000000000000e+00  6.5856961843991113e-01 -3.9012962551047330e-08 0.0000000000000000e+00  1.3930664991858315e+00 2.8496364185031007e-10 0.0000000000000000e+00  1.4994286257219855e+00 2.8836181834821872e-10 0.0000000000000000e+00  6.8374664676528374e-01 -2.2227929465233384e-09 0.0000000000000000e+00  6.8374664411223263e-01 -8.0427958717448056e-10 0.0000000000000000e+00  0.0000000000000000e+00 7.7126756126193226e-16 0.0000000000000000e+00  1.3878966715517882e+00 -2.0532160411565335e-08 0.0000000000000000e+00  1.4999230804269414e+00 -2.5902481866071158e-08 0.0000000000000000e+00  5.2278400205412756e-01 -5.2890374752956726e-09 0.0000000000000000e+00  5.2278399276063403e-01 -2.6289005310569246e-09 0.0000000000000000e+00  0.0000000000000000e+00 0.0000000000000000e+00 0.0000000000000000e+00  1.0547575567256069e+00 -9.4468357873090021e-09 0.0000000000000000e+00  1.3236896162037233e+00 -3.3931018812619620e-08 0.0000000000000000e+00  6.2110991348257505e-01 -2.2573993278447978e-08 0.0000000000000000e+00  6.2110988000264000e-01 -1.3457863801677026e-08 0.0000000000000000e+00  0.0000000000000000e+00 0.0000000000000000e+00 0.0000000000000000e+00  1.0081938986039143e+00 -2.9454237547078351e-08 0.0000000000000000e+00  1.3639553392473349e+00 -6.2972034837565138e-08 0.0000000000000000e+00  1.3943928710864102e+00 -1.2238713539980006e-07 0.0000000000000000e+00  1.4981010497671874e+00 -9.9061809645066543e-08 0.0000000000000000e+00  6.8551119693368079e-01 -1.1237064171620069e-03 0.0000000000000000e+00  6.8431187741766719e-01 -3.1778175312831432e-04 0.0000000000000000e+00  0.0000000000000000e+00 0.0000000000000000e+00 0.0000000000000000e+00  1.4141418884973618e+00 -5.1919506987257074e-03 0.0000000000000000e+00  1.4206120645621654e+00 -1.8337014344811126e-03 0.0000000000000000e+00  6.5070943756459942e-01 -5.5277471507985809e-08 0.0000000000000000e+00  6.5070935673312080e-01 -3.9295826273203483e-08 0.0000000000000000e+00  0.0000000000000000e+00 0.0000000000000000e+00 0.0000000000000000e+00  1.0976429885560239e+00 -9.4039360786126641e-08 0.0000000000000000e+00  1.4044876346175210e+00 -1.8665991602917980e-07 0.0000000000000000e+00  1.4050131870093476e+00 -2.4855094879904438e-07 0.0000000000000000e+00  1.4999986904237415e+00 -2.4542671266569948e-07 0.0000000000000000e+00  6.6338244171071148e-01 -2.9063639193623967e-05 0.0000000000000000e+00  6.6335295737638478e-01 3.3592387544661624e-05 0.0000000000000000e+00  0.0000000000000000e+00 0.0000000000000000e+00 0.0000000000000000e+00  1.1485902502906067e+00 -5.9551382971911990e-04 0.0000000000000000e+00  1.4137365195167424e+00 -5.6943296962327916e-04 0.0000000000000000e+00  1.4092858697231756e+00 -1.0836434650488976e-04 0.0000000000000000e+00  1.5000803897049790e+00 -4.4023019951872864e-04 0.0000000000000000e+00  6.1566336441595604e-01 -5.5900742311448737e-08 0.0000000000000000e+00  6.1566326249422310e-01 -6.2874148193406320e-08 0.0000000000000000e+00  0.0000000000000000e+00 0.0000000000000000e+00 0.0000000000000000e+00  1.0939550466751184e+00 -1.7454959286725825e-07 0.0000000000000000e+00  1.3930569830307897e+00 -2.627