<?xml version="1.0"?>
<VTKFile type="UnstructuredGrid"  version="0.1"  >
<UnstructuredGrid>
<Piece  NumberOfPoints="525" NumberOfCells="924">
<Points>
<DataArray  type="Float64"  NumberOfComponents="3"  format="ascii">0 0 0  2.2 0 0  2.2 0.41 0  0 0.41 0  0.15 0.2 0  0.25 0.2 0  0.2 0.15 0  0.2 0.25 0  0.104762 0 0  0.209524 0 0  0.314286 0 0  0.419048 0 0  0.52381 0 0  0.628571 0 0  0.733333 0 0  0.838095 0 0  0.9428569999999999 0 0  1.04762 0 0  1.15238 0 0  1.25714 0 0  1.3619 0 0  1.46667 0 0  1.57143 0 0  1.67619 0 0  1.78095 0 0  1.88571 0 0  1.99048 0 0  2.09524 0 0  2.2 0.1025 0  2.2 0.205 0  2.2 0.3075 0  2.1 0.41 0  2 0.41 0  1.9 0.41 0  1.8 0.41 0  1.7 0.41 0  1.6 0.41 0  1.5 0.41 0  1.4 0.41 0  1.3 0.41 0  1.2 0.41 0  1.1 0.41 0  1 0.41 0  0.9 0.41 0  0.8 0.41 0  0.7 0.41 0  0.6 0.41 0  0.5 0.41 0  0.4 0.41 0  0.3 0.41 0  0.2 0.41 0  0.1 0.41 0  0 0.3075 0  0 0.205 0  0 0.1025 0  0.1566987973585577 0.2250001169958213 0  0.1749998830041787 0.2433012026414423 0  0.2250001169958213 0.2433012026414423 0  0.2433012026414423 0.2250001169958213 0  0.2433012026414423 0.1749998830041787 0  0.2250001169958213 0.1566987973585577 0  0.1749998830041787 0.1566987973585577 0  0.1566987973585577 0.1749998830041787 0  0.352033 0.262216 0  1.04579 0.252253 0  1.24065 0.243419 0  0.985775 0.171509 0  1.30324 0.187395 0  0.890988 0.190768 0  1.39085 0.202767 0  0.801464 0.204685 0  1.49904 0.204666 0  0.704267 0.202289 0  1.60238 0.204951 0  0.487789 0.19191 0  1.72935 0.219637 0  1.83335 0.187427 0  2.03359 0.193642 0  0.314663 0.307348 0  0.249039 0.333583 0  2.12147 0.253405 0  2.06373 0.0836837 0  0.0734726 0.267055 0  0.143989 0.0677174 0  0.0613613 0.33781 0  0.299628 0.236829 0  0.527114 0.295386 0  0.262384 0.26549 0  0.275777 0.18341 0  1.74578 0.330928 0  1.84001 0.302448 0  1.64998 0.313838 0  0.648421 0.302367 0  1.54544 0.308508 0  0.755686 0.306156 0  1.42668 0.314809 0  0.870524 0.298596 0  1.22553 0.112785 0  1.05603 0.147372 0  0.969346 0.329867 0  1.32527 0.276284 0  2.02914 0.29511 0  1.88168 0.119486 0  1.79545 0.104842 0  1.35688 0.0892539 0  1.69041 0.105324 0  0.914199 0.09555660000000001 0  1.58234 0.102923 0  0.61843 0.10815 0  1.47999 0.101161 0  0.725217 0.104273 0  0.821727 0.102306 0  1.96725 0.105778 0  0.418624 0.241547 0  0.135226 0.239087 0  1.14921 0.314841 0  0.404508 0.333259 0  0.590155 0.206269 0  2.12554 0.150731 0  1.93166 0.22436 0  0.104689 0.190046 0  0.267856 0.07447529999999999 0  0.269368 0.221581 0  0.434446 0.114927 0  1.0089 0.07933809999999999 0  0.953023 0.246698 0  1.25853 0.33355 0  1.05268 0.340828 0  2.1369 0.067383 0  0.522398 0.112537 0  1.3421 0.348929 0  0.215186 0.289473 0  0.203197 0.335348 0  1.13984 0.190728 0  1.93813 0.330504 0  1.10505 0.0883705 0  0.341988 0.0824728 0  0.253113 0.138035 0  0.291932 0.131907 0  0.203713 0.102439 0  0.150375 0.134668 0  0.151494 0.309119 0  0.354384 0.17896 0  0.06853670000000001 0.100776 0  0.424128 0.180088 0  0.474925 0.0568661 0  2.10843 0.347669 0  2.160735 0.2804525 0  2.160735 0.2292025 0  2.2 0.25625 0  2.079485 0.04184185 0  2.027105 0.04184185 0  2.04286 0 0  0.1767565 0.0338587 0  0.1243755 0.0338587 0  0.157143 0 0  0.08068065000000001 0.373905 0  0.03068065 0.373905 0  0.05 0.41 0  0.03068065 0.322655 0  0 0.35875 0  0.281851 0.3204655 0  0.2745195 0.3717915 0  0.3073315 0.358674 0  0.06741695 0.3024325 0  0.0367363 0.2872775 0  0.3071455 0.2720885 0  0.3258305 0.2495225 0  0.333348 0.284782 0  0.2557115 0.2995365 0  0.2885235 0.286419 0  2.075305 0.2742575 0  2.031365 0.244376 0  2.07753 0.2235235 0  2.01549 0.09473085000000001 0  1.978865 0.052889 0  2.00042 0.14971 0  2.04866 0.13866285 0  0.472869 0.2684665 0  0.4532065 0.2167285 0  0.5074514999999999 0.243648 0  2.16277 0.1778655 0  2.16277 0.1266155 0  2.2 0.15375 0  1.90667 0.171923 0  1.882505 0.2058935 0  1.857515 0.1534565 0  1.885835 0.263404 0  1.83668 0.2449375 0  0.6042925 0.1572095 0  0.647211 0.204279 0  0.6613485 0.1552195 0  0.3595855 0.3203035 0  0.3782705 0.2977375 0  0.155113 0.241194 0  0.1459625 0.2320435 0  0.1646446609406726 0.2353553390593274 0  0.259539 0.179205 0  0.2628885 0.191705 0  0.2482962819455563 0.1870590127797247 0  0.281006 0.2511595 0  1.0209025 0.1594405 0  1.05091 0.1998125 0  1.0157825 0.211881 0  1.264385 0.15009 0  1.23309 0.178102 0  1.271945 0.215407 0  1.291205 0.10101945 0  1.33006 0.13832445 0  0.928528 0.0477783 0  0.876147 0.0477783 0  0.890476 0 0  0.9025935 0.1431623 0  0.9499869999999999 0.1335328 0  0.9383815 0.1811385 0  0.867963 0.0989313 0  0.8563575 0.146537 0  0.8299110000000001 0.051153 0  1.411775 0.04462695 0  1.35939 0.04462695 0  1.414285 0 0  1.373865 0.14601045 0  1.347045 0.195081 0  1.418435 0.09520745 0  1.43542 0.151964 0  1.47333 0.0505805 0  0.7775300000000001 0.051153 0  0.785714 0 0  0.8115954999999999 0.1534955 0  0.8462259999999999 0.1977265 0  0.7734719999999999 0.1032895 0  0.7633405 0.154479 0  0.729275 0.0521365 0  1.52571 0.0505805 0  1.51905 0 0  1.489515 0.1529135 0  1.444945 0.2037165 0  1.531165 0.102042 0  1.54069 0.1537945 0  1.576885 0.0514615 0  1.9804 0.259735 0  1.982625 0.209001 0  1.820005 0.356224 0  1.870005 0.356224 0  1.85 0.41 0  1.78468 0.2610425 0  1.78135 0.203532 0  1.72289 0.370464 0  1.77289 0.370464 0  1.75 0.41 0  1.792895 0.316688 0  1.737565 0.2752825 0  1.62499 0.361919 0  1.67499 0.361919 0  1.65 0.41 0  1.69788 0.322383 0  1.689665 0.2667375 0  1.62618 0.2593945 0  1.665865 0.212294 0  0.6242105 0.3561835 0  0.6742105 0.3561835 0  0.6499999999999999 0.41 0  0.6192880000000001 0.254318 0  0.6763440000000001 0.252328 0  1.52272 0.359254 0  1.57272 0.359254 0  1.55 0.41 0  1.59771 0.311173 0  1.57391 0.2567295 0  1.52224 0.256587 0  1.55071 0.2048085 0  0.727843 0.358078 0  0.7778430000000001 0.358078 0  0.75 0.41 0  0.7020535 0.3042615 0  0.7299765 0.2542225 0  0.778575 0.2554205 0  0.7528655 0.203487 0  1.41334 0.3624045 0  1.46334 0.3624045 0  1.45 0.41 0  1.48606 0.3116585 0  1.46286 0.2597375 0  1.408765 0.258788 0  0.8352619999999999 0.354298 0  0.885262 0.354298 0  0.8500000000000001 0.41 0  0.813105 0.302376 0  0.8359939999999999 0.2516405 0  0.880756 0.244682 0  0.9346730000000001 0.3699335 0  0.984673 0.3699335 0  0.95 0.41 0  0.9199349999999999 0.3142315 0  0.676894 0.0521365 0  0.680952 0 0  0.714742 0.153281 0  0.6718235 0.1062115 0  0.6235005 0.054075 0  1.629265 0.0514615 0  1.62381 0 0  1.59236 0.153937 0  1.636375 0.1041235 0  1.646395 0.1551375 0  1.6833 0.052662 0  1.73568 0.052662 0  1.72857 0 0  1.70988 0.1624805 0  1.74293 0.105083 0  1.7624 0.1622395 0  1.7882 0.052421 0  1.84058 0.052421 0  1.83333 0 0  1.8144 0.1461345 0  1.838565 0.112164 0  1.883695 0.059743 0  1.124605 0.3624205 0  1.174605 0.3624205 0  1.15 0.41 0  1.314255 0.2318395 0  1.28296 0.2598515 0  1.35806 0.2395255 0  1.375975 0.2955465 0  1.92648 0.052889 0  1.938095 0 0  1.924465 0.112632 0  1.949455 0.165069 0  0.352254 0.3716295 0  0.402254 0.3716295 0  0.35 0.41 0  0.513557 0.352693 0  0.563557 0.352693 0  0.55 0.41 0  0.5877675 0.2988765 0  0.5586344999999999 0.2508275 0  0.538972 0.1990895 0  0.452254 0.3716295 0  0.45 0.41 0  0.465811 0.3143225 0  0.411566 0.287403 0  0.3853285 0.2518815 0  0.1199575 0.2145665 0  0.0890808 0.2285505 0  0.1043493 0.253071 0  0.2245195 0.3717915 0  0.25 0.41 0  0.291071 0.03723765 0  0.23869 0.03723765 0  0.261905 0 0  0.265876 0.2435355 0  0.2563345 0.2232905 0  0.2528425 0.245245 0  0.284498 0.229205 0  1.032465 0.11335505 0  0.9973375 0.12542355 0  0.9615494999999999 0.08744735000000001 0  0.9220055 0.218733 0  0.9693989999999999 0.2091035 0  0.9611845 0.2882825 0  0.9117735 0.272647 0  1.229265 0.371775 0  1.279265 0.371775 0  1.25 0.41 0  1.02634 0.375414 0  1.07634 0.375414 0  1.05 0.41 0  1.011013 0.3353475 0  2.11607 0.0336915 0  2.16845 0.0336915 0  2.14762 0 0  2.16845 0.0849415 0  2.2 0.05125 0  2.100315 0.07553335 0  0.5562765000000001 0.159403 0  0.570414 0.1103435 0  0.5050935 0.1522235 0  1.32105 0.3794645 0  1.37105 0.3794645 0  1.35 0.41 0  1.333685 0.3126065 0  1.38439 0.331869 0  0.9994065 0.2494755 0  1.007568 0.29106 0  1.300315 0.3412395 0  1.2919 0.304917 0  2.13122 0.109057 0  2.094635 0.11720735 0  0.2725725 0.2024955 0  0.259684 0.2107905 0  0.2482962819455563 0.2129409872202754 0  0.2877025 0.2101195 0  2.123505 0.202068 0  2.079565 0.1721865 0  1.02826 0.03966905 0  0.9758784999999999 0.03966905 0  0.9952384999999999 0 0  1.049235 0.2965405 0  1.100945 0.3278345 0  1.0975 0.283547 0  0.5711200000000001 0.054075 0  0.5761905 0 0  0.523104 0.0562685 0  1.24959 0.2884845 0  1.20387 0.3241955 0  1.19493 0.27913 0  0.238785 0.2774815 0  0.2321125 0.311528 0  0.226118 0.3344655 0  0.2015985 0.3726739999999999 0  1.144525 0.2527845 0  1.190245 0.2170735 0  1.092815 0.2214905 0  0.2091915 0.3124105 0  0.220093 0.266387 0  0.243692 0.2543955 0  0.2353553390593274 0.2353553390593274 0  0.478422 0.113732 0  0.4611175 0.1534185 0  1.919065 0.370252 0  1.969065 0.370252 0  1.95 0.41 0  1.983635 0.312807 0  2.01457 0.352555 0  1.88907 0.316476 0  1.934895 0.277432 0  1.182685 0.1517565 0  1.097935 0.16905 0  1.128715 0.04418525 0  1.076335 0.04418525 0  1.1 0 0  1.056975 0.08385429999999999 0  1.08054 0.11787125 0  1.122445 0.13954925 0  1.16529 0.10057775 0  0.304922 0.07847404999999999 0  0.328137 0.0412364 0  0.380518 0.0412364 0  0.366667 0 0  0.388217 0.09869990000000001 0  0.426747 0.0574635 0  0.31696 0.1071899 0  0.279894 0.10319115 0  0.2725225 0.134971 0  0.2604845 0.10625515 0  0.228413 0.120237 0  0.2143565 0.129569 0  0.2390565 0.147367 0  1.30701 0.04462695 0  1.30952 0 0  1.241335 0.0563925 0  0.2357845 0.08845715 0  1.188955 0.0563925 0  1.20476 0 0  0.2066185 0.0512195 0  0.173851 0.08507819999999999 0  0.0367363 0.2360275 0  0 0.25625 0  0.264445 0.1607225 0  0.248207 0.1565175 0  0.2353553390593274 0.1646446609406726 0  0.2838545 0.1576585 0  0.130694 0.182523 0  0.1273445 0.195023 0  0.1517037180544437 0.1870590127797247 0  0.127532 0.162357 0  0.153537 0.154834 0  0.0523445 0.197523 0  0
[...]
<PointData  Vectors="u"> 
<DataArray  type="Float64"  Name="u"  NumberOfComponents="3" format="ascii">-1.0221894515548407e-14 8.4734605798692314e-15 0.0000000000000000e+00  0.0000000000000000e+00 0.0000000000000000e+00 0.0000000000000000e+00  0.0000000000000000e+00 0.0000000000000000e+00 0.0000000000000000e+00  5.6567859241407521e-16 0.0000000000000000e+00 0.0000000000000000e+00  0.0000000000000000e+00 0.0000000000000000e+00 0.0000000000000000e+00  0.0000000000000000e+00 0.0000000000000000e+00 0.0000000000000000e+00  0.0000000000000000e+00 0.0000000000000000e+00 0.0000000000000000e+00  0.0000000000000000e+00 0.0000000000000000e+00 0.0000000000000000e+00  0.0000000000000000e+00 0.0000000000000000e+00 0.0000000000000000e+00  0.0000000000000000e+00 1.0502109379923407e-15 0.0000000000000000e+00  0.0000000000000000e+00 4.8106354112623899e-16 0.0000000000000000e+00  0.0000000000000000e+00 9.3899358881700234e-16 0.0000000000000000e+00  0.0000000000000000e+00 3.2657477661984918e-16 0.0000000000000000e+00  0.0000000000000000e+00 -7.7039717082537636e-16 0.0000000000000000e+00  0.0000000000000000e+00 -1.4676875751868275e-15 0.0000000000000000e+00  0.0000000000000000e+00 0.0000000000000000e+00 0.0000000000000000e+00  0.0000000000000000e+00 3.0245468562290075e-16 0.0000000000000000e+00  0.0000000000000000e+00 0.0000000000000000e+00 0.0000000000000000e+00  0.0000000000000000e+00 0.0000000000000000e+00 0.0000000000000000e+00  0.0000000000000000e+00 9.3890817008590522e-16 0.0000000000000000e+00  8.5393218723532322e-16 0.0000000000000000e+00 0.0000000000000000e+00  -1.0423113677442175e-15 0.0000000000000000e+00 0.0000000000000000e+00  -7.5484670754233691e-16 0.0000000000000000e+00 0.0000000000000000e+00  6.0517115500668019e-16 0.0000000000000000e+00 0.0000000000000000e+00  8.8120508375010312e-16 -5.1653685244686103e-16 0.0000000000000000e+00  0.0000000000000000e+00 0.0000000000000000e+00 0.0000000000000000e+00  0.0000000000000000e+00 0.0000000000000000e+00 0.0000000000000000e+00  0.0000000000000000e+00 0.0000000000000000e+00 0.0000000000000000e+00  1.1250000002003582e+00 3.8265830709819537e-10 0.0000000000000000e+00  1.5000000000003366e+00 6.3301355050054184e-10 0.0000000000000000e+00  1.1249999997998352e+00 3.8224239360923299e-10 0.0000000000000000e+00  0.0000000000000000e+00 0.0000000000000000e+00 0.0000000000000000e+00  0.0000000000000000e+00 0.0000000000000000e+00 0.0000000000000000e+00  3.3265235482669235e-16 0.0000000000000000e+00 0.0000000000000000e+00  0.0000000000000000e+00 0.0000000000000000e+00 0.0000000000000000e+00  0.0000000000000000e+00 0.0000000000000000e+00 0.0000000000000000e+00  0.0000000000000000e+00 0.0000000000000000e+00 0.0000000000000000e+00  0.0000000000000000e+00 0.0000000000000000e+00 0.0000000000000000e+00  0.0000000000000000e+00 0.0000000000000000e+00 0.0000000000000000e+00  0.0000000000000000e+00 0.0000000000000000e+00 0.0000000000000000e+00  0.0000000000000000e+00 -3.5270380584937314e-16 0.0000000000000000e+00  0.0000000000000000e+00 0.0000000000000000e+00 0.0000000000000000e+00  0.0000000000000000e+00 3.5482123224598091e-16 0.0000000000000000e+00  0.0000000000000000e+00 1.1967104943774830e-15 0.0000000000000000e+00  0.0000000000000000e+00 9.8426506563440137e-16 0.0000000000000000e+00  0.0000000000000000e+00 -8.9923235019518469e-16 0.0000000000000000e+00  0.0000000000000000e+00 0.0000000000000000e+00 0.0000000000000000e+00  0.0000000000000000e+00 0.0000000000000000e+00 0.0000000000000000e+00  0.0000000000000000e+00 0.0000000000000000e+00 0.0000000000000000e+00  0.0000000000000000e+00 -1.9231043571264977e-15 0.0000000000000000e+00  0.0000000000000000e+00 0.0000000000000000e+00 0.0000000000000000e+00  0.0000000000000000e+00 0.0000000000000000e+00 0.0000000000000000e+00  1.1249999999999998e+00 0.0000000000000000e+00 0.0000000000000000e+00  1.4999999999999996e+00 0.0000000000000000e+00 0.0000000000000000e+00  1.1250000000000004e+00 3.1884934202590452e-16 0.0000000000000000e+00  0.0000000000000000e+00 0.0000000000000000e+00 0.0000000000000000e+00  1.3736534267043284e-15 3.4340680525559525e-16 0.0000000000000000e+00  0.0000000000000000e+00 0.0000000000000000e+00 0.0000000000000000e+00  0.0000000000000000e+00 0.0000000000000000e+00 0.0000000000000000e+00  0.0000000000000000e+00 0.0000000000000000e+00 0.0000000000000000e+00  -6.2901275779500246e-16 -5.3775232731471885e-16 0.0000000000000000e+00  0.0000000000000000e+00 0.0000000000000000e+00 0.0000000000000000e+00  -4.3397667545202451e-16 0.0000000000000000e+00 0.0000000000000000e+00  1.2551735572751943e+00 -3.2946998204515704e-01 0.0000000000000000e+00  1.4202832965431915e+00 5.0201085443732197e-05 0.0000000000000000e+00  1.4473163163212190e+00 2.5222214834596084e-06 0.0000000000000000e+00  1.4599983162079255e+00 9.3766865571797583e-05 0.0000000000000000e+00  1.4889372272502959e+00 1.4366686194577143e-07 0.0000000000000000e+00  1.4928263036777629e+00 1.9823742497527752e-04 0.0000000000000000e+00  1.4998219978370211e+00 -6.9686765709714763e-07 0.0000000000000000e+00  1.5000929644850671e+00 2.3856755211723620e-04 0.0000000000000000e+00  1.4999960162439872e+00 -4.6066594008327795e-07 0.0000000000000000e+00  1.4999263349733321e+00 -3.2872491699941034e-04 0.0000000000000000e+00  1.4999999143019151e+00 -1.8477934618804645e-07 0.0000000000000000e+00  1.4587730609674201e+00 -7.2156073617256344e-03 0.0000000000000000e+00  1.4923530631813218e+00 -3.6844898841191891e-08 0.0000000000000000e+00  1.4889776208606047e+00 -4.4440829531807890e-09 0.0000000000000000e+00  1.4953954494517947e+00 1.6004257430029130e-09 0.0000000000000000e+00  1.4298821050877399e+00 -4.2980475847845651e-01 0.0000000000000000e+00  1.7568003240078673e+00 -2.7567516970024319e-01 0.0000000000000000e+00  1.4163696358326709e+00 8.0428670925734458e-10 0.0000000000000000e+00  9.7468252413314971e-01 5.6157736991752772e-10 0.0000000000000000e+00  1.2756615966114671e+00 5.6534082129459429e-01 0.0000000000000000e+00  1.5547896033977369e+00 -2.9573613086587958e-01 0.0000000000000000e+00  1.0830305315251667e+00 2.9508726096410581e-01 0.0000000000000000e+00  8.2764144290532859e-01 -4.1537128996279987e-01 0.0000000000000000e+00  1.2160610162401346e+00 -2.3209680206853038e-02 0.0000000000000000e+00  1.1320522457042614e+00 -6.0974988380361062e-01 0.0000000000000000e+00  3.4002269339393271e-01 2.2175901004493673e-01 0.0000000000000000e+00  9.3398473483013622e-01 -8.8528347680613739e-09 0.0000000000000000e+00  1.1610548685154432e+00 -1.4616505387620977e-09 0.0000000000000000e+00  1.0771906451895281e+00 -5.0792534098987169e-08 0.0000000000000000e+00  1.1619291769975169e+00 -1.4626878392709024e-03 0.0000000000000000e+00  1.1175883358580603e+00 -1.7039124453360796e-07 0.0000000000000000e+00  1.1343605951613471e+00 1.9983767813107516e-04 0.0000000000000000e+00  1.0696133962546803e+00 -3.5816670361508244e-07 0.0000000000000000e+00  1.1871165272875643e+00 1.7554752971735233e-04 0.0000000000000000e+00  1.1964805753926926e+00 2.1087513931314352e-06 0.0000000000000000e+00  1.3814844433143503e+00 4.0555664651404010e-05 0.0000000000000000e+00  9.4340292645329327e-01 4.7929883865871011e-05 0.0000000000000000e+00  1.3186299026517416e+00 -2.9913185979958272e-07 0.0000000000000000e+00  1.2101792216784111e+00 1.0837332982017097e-09 0.0000000000000000e+00  1.2389895019195070e+00 3.3921310747279206e-10 0.0000000000000000e+00  1.1419408100196569e+00 -5.4812858373847823e-09 0.0000000000000000e+00  1.0218136294566058e+00 -3.4606144619166605e-07 0.0000000000000000e+00  1.1453787363188683e+00 -3.4333932245682528e-08 0.0000000000000000e+00  1.0726078430669770e+00 7.7014395714402589e-05 0.0000000000000000e+00  1.1280885990388769e+00 -1.2135138488865723e-07 0.0000000000000000e+00  1.1651873275990725e+00 3.0126335926588225e-04 0.0000000000000000e+00  1.1151380278917977e+00 -2.8709373070478090e-07 0.0000000000000000e+00  1.1382156520178914e+00 -7.5653388099310531e-05 0.0000000000000000e+00  1.1238494034254904e+00 9.5177741737734276e-05 0.0000000000000000e+00  1.1486018362644903e+00 1.2329083727615146e-09 0.0000000000000000e+00  1.3651849771554005e+00 -1.1331785879770551e-01 0.0000000000000000e+00  6.0234642640726199e-01 5.4969170690114333e-01 0.0000000000000000e+00  1.0693568558783992e+00 6.5881544352104350e-06 0.0000000000000000e+00  1.0372900804179364e+00 -1.1607103891937887e-01 0.0000000000000000e+00  1.4971577825700348e+00 -4.3984241079288045e-03 0.0000000000000000e+00  1.3948795592150158e+00 7.5820138291140048e-10 0.0000000000000000e+00  1.4866219053537675e+00 1.6517590567482904e-09 0.0000000000000000e+00  6.3076243397657983e-01 -1.0312978489096764e-01 0.0000000000000000e+00  1.5416861871730136e+00 3.2949910545522754e-01 0.0000000000000000e+00  3.1517983125541083e-01 -2.9175805553281536e-01 0.0000000000000000e+00  1.2078005049182878e+00 7.7508288707715131e-02 0.0000000000000000e+00  9.3642024705867333e-01 2.7639939946132319e-05 0.0000000000000000e+00  1.4378914120099904e+00 1.2904669293194488e-04 0.0000000000000000e+00  9.1016982060680840e-01 3.1790160799554717e-07 0.0000000000000000e+00  8.4146597447062954e-01 1.4698694229635212e-05 0.0000000000000000e+00  8.2402955348084694e-01 2.4743947657827975e-10 0.0000000000000000e+00  1.1938628927228465e+00 1.1710138267439711e-02 0.0000000000000000e+00  7.6059982886835009e-01 -2.0506112981905614e-07 0.0000000000000000e+00  1.7054827726800006e+00 -1.9359369150833214e-01 0.0000000000000000e+00  1.8961385303006308e+00 -1.1253092026797851e-02 0.0000000000000000e+00  1.4927312086061526e+00 1.6988105746811136e-05 0.0000000000000000e+00  9.3778985985188235e-01 8.6303007782305141e-10 0.0000000000000000e+00  1.0144991926065134e+00 1.0934510270822104e-05 0.0000000000000000e+00  1.1815601578348094e+00 2.5371662811846507e-01 0.0000000000000000e+00  1.0035423826889289e+00 5.5223048355424287e-01 0.0000000000000000e+00  1.1448960377007502e+00 5.4577894453454301e-01 0.0000000000000000e+00  1.7641951541161676e+00 3.6728985181603661e-02 0.0000000000000000e+00  1.0975875734972305e+00 -5.7184031123930723e-01 0.0000000000000000e+00  1.7779317323806465e+00 4.6676280746178239e-01 0.0000000000000000e+00  1.1077422763439682e+00 1.0500020051584159e-01 0.0000000000000000e+00  1.2387104689390631e+00 -4.2082940449563949e-01 0.0000000000000000e+00  1.3636801309783382e+00 1.9970627642638111e-02 0.0000000000000000e+00  7.3666711308287647e-01 1.7088273603435230e-02 0.0000000000000000e+00  7.7348803410667444e-01 2.5420036594446473e-10 0.0000000000000000e+00  1.2967966769978394e+00 5.3510831414970855e-10 0.0000000000000000e+00  1.4790924089166422e+00 6.8739348195660065e-10 0.0000000000000000e+00  1.4062499998360685e+00 5.6358214559375973e-10 0.0000000000000000e+00  5.4983050944347456e-01 1.5414568660262893e-10 0.0000000000000000e+00  5.4983050986774518e-01 2.2599032437016613e-10 0.0000000000000000e+00  0.0000000000000000e+00 0.0000000000000000e+00 0.0000000000000000e+00  1.1556599151684819e+00 -4.9465071389437495e-02 0.0000000000000000e+00  9.3200560599411997e-01 -1.0763443454621455e-01 0.0000000000000000e+00  0.0000000000000000e+00 3.2268928981343650e-15 0.0000000000000000e+00  7.4075717683676012e-01 1.1440013882055278e-01 0.0000000000000000e+00  5.2799658896185653e-01 5.4706440179695247e-02 0.0000000000000000e+00  0.0000000000000000e+00 5.5450525861039073e-16 0.0000000000000000e+00  1.0641137794545428e+00 2.3076808821858050e-01 0.0000000000000000e+00  6.5624999999999989e-01 0.0000000000000000e+00 0.0000000000000000e+00  1.6020062776391684e+00 -4.1489828345079693e-01 0.0000000000000000e+00  1.0915271769415518e+00 -1.0845289146203269e-01 0.0000000000000000e+00  1.1419202703711862e+00 -1.7093787180043407e-01 0.0000000000000000e+00  1.3084824375722981e+00 4.9559328682016496e-01 0.0000000000000000e+00  1.2802759860668582e+00 3.5844730202842828e-01 0.0000000000000000e+00  1.2519115450811624e+00 -5.3265066389079130e-01 0.0000000000000000e+00  1.1062429696579212e+00 -3.9411765679715022e-01 0.0000000000000000e+00  1.3256302413277385e+00 -4.1926839939004967e-01 0.0000000000000000e+00  1.6782164366506902e+00 -4.9620514841581165e-01 0.0000000000000000e+00  1.4156184810564860e+00 -5.7576983297881812e-01 0.0000000000000000e+00  1.3287947175864085e+00 9.7672916407980675e-10 0.0000000000000000e+00  1.4446590340238832e+00 1.5154073312743203e-09 0.0000000000000000e+00  1.4877530020535248e+00 1.2115539293661223e-09 0.0000000000000000e+00  1.0659981417476838e+00 9.0760868616479228e-10 0.0000000000000000e+00  6.7414314326193225e-01 4.3473457073893605e-10 0.0000000000000000e+00  1.3908869459246243e+00 1.6118752244343441e-09 0.0000000000000000e+00  1.3429285862372089e+00 1.1876963054556821e-09 0.0000000000000000e+00  1.3508513473296027e+00 -6.2332456572692312e-02 0.0000000000000000e+00  1.4297539776694435e+00 -4.0969254911230296e-02 0.0000000000000000e+00  1.4338813890298168e+00 -2.9801028839140872e-02 0.0000000000000000e+00  1.4737198898531805e+00 6.7606743507356414e-10 0.0000000000000000e+00  1.2806973290734351e+00 5.1812894310638971e-10 0.0000000000000000e+00  1.4062500001646305e+00 5.6354175332661296e-10 0.0000000000000000e+00  1.4609486771003419e+00 1.0677841662342216e-09 0.0000000000000000e+00  1.4999715047039441e+00 1.2760840362204181e-11 0.0000000000000000e+00  1.4051731462687125e+00 -1.3430232145101148e-09 0.0000000000000000e+00  1.3782500676973426e+00 3.7480584023702840e-10 0.0000000000000000e+00  1.4430694612965542e+00 -3.6084166703141976e-09 0.0000000000000000e+00  1.4169677315432998e+00 -6.0573485753729001e-04 0.0000000000000000e+00  1.4997195560783032e+00 -1.5621639563182326e-03 0.0000000000000000e+00  1.4115895973486949e+00 -5.3667429719046950e-04 0.0000000000000000e+00  1.2409037009730217e+00 -2.4742877016808479e-01 0.0000000000000000e+00  1.2787639295944209e+00 -2.4106803793635934e-01 0.0000000000000000e+00  4.0792105387777250e-01 3.6492618006361538e-01 0.0000000000000000e+00  3.1678277685976264e-01 3.7876033040787643e-01 0.0000000000000000e+00  0.0000000000000000e+00 -3.7651273411018593e-16 0.0000000000000000e+00  1.7795412860629892e-01 2.3201442614364487e-01 0.0000000000000000e+00  1.1254259912397475e-01 9.4379504878723791e-02 0.0000000000000000e+00  0.0000000000000000e+00 0.0000000000000000e+00 0.0000000000000000e+00  9.0852258783413631e-01 -5.6441933266523692e-01 0.0000000000000000e+00  1.4259406404785975e+00 6.3383031123334297e-05 0.0000000000000000e+00  1.4990424037141064e+00 5.2614827349551446e-05 0.0000000000000000e+00  1.4983070394157549e+00 7.6627815885976601e-05 0.0000000000000000e+00  1.3923812543185239e+00 1.1580235148225354e-06 0.0000000000000000e+00  1.4741760965145236e+00 3.2048444310634361e-06 0.0000000000000000e+00  1.4961342968424931e+00 1.1338047824626319e-06 0.0000000000000000e+00  1.1140874347249334e+00 5.8312602611401232e-08 0.0000000000000000e+00  1.3413212074443031e+00 -3.3068314499111740e-07 0.0000000000000000e+00  6.1779943452789543e-01 2.2091811672143281e-05 0.0000000000000000e+00  6.1784894473440233e-01 2.7944378493037444e-05 0.0000000000000000e+00  0.0000000000000000e+00 -5.0597797490710626e-16 0.0000000000000000e+00  1.3636386440451425e+00 1.4236955300177026e-04 0.0000000000000000e+00  1.3177802575923026e+00 9.7567375669112283e-05 0.0000000000000000e+00  1.4797222886770105e+00 1.4273531275453314e-04 0.0000000000000000e+00  1.0986310462307016e+00 9.6218997801523473e-05 0.0000000000000000e+00  1.3781864757359563e+00 1.7140776867625434e-04 0.0000000000000000e+00  6.5537544569964501e-01 3.0278654181427091e-05 0.0000000000000000e+00  5.8199176238061701e-01 -1.1761989542643578e-07 0.0000000000000000e+00  5.8199151061564991e-01 -1.2688187632549680e-07 0.0000000000000000e+00  0.0000000000000000e+00 0.0000000000000000e+00 0.0000000000000000e+00  1.3757959059467095e+00 -5.8161191033697064e-07 0.0000000000000000e+00  1.4964881561608649e+00 -5.1373910553127614e-07 0.0000000000000000e+00  1.0697409771568904e+00 -3.6765460297368846e-07 0.0000000000000000e+00  1.3996015979280567e+00 -5.7351414601194249e-07 0.0000000000000000e+00  6.4888548020611925e-01 -1.0049888568046517e-07 0.0000000000000000e+00  6.5541740303013429e-01 1.0700179857484337e-05 0.0000000000000000e+00  0.0000000000000000e+00 -1.0611279181724331e-15 0.0000000000000000e+00  1.4055581893102127e+00 1.7145839898729767e-04 0.0000000000000000e+00  1.4981846631639575e+00 2.3950395018512415e-04 0.0000000000000000e+00  1.1310895314179064e+00 4.2044812038127074e-05 0.0000000000000000e+00  1.4092124954698853e+00 7.6866758637262323e-05 0.0000000000000000e+00  6.6617955917032468e-01 -3.1528884718196571e-05 0.0000000000000000e+00  6.4888563109408959e-01 -6.5881101212844982e-08 0.0000000000000000e+00  -9.1789606197544704e-16 0.0000000000000000e+00 0.0000000000000000e+00  1.4031644049363101e+00 -4.2914954516383210e-07 0.0000000000000000e+00  1.4999411904172275e+00 -6.2926986241288494e-07 0.0000000000000000e+00  1.1216410456177532e+00 -1.9481415532006918e-07 0.0000000000000000e+00  1.4064125837539112e+00 -2.8992759233742722e-07 0.0000000000000000e+00  6.5856963725658946e-01 -4.0950676137506352e-08 0.0000000000000000e+00  1.3930664985953218e+00 1.7015408986575619e-09 0.0000000000000000e+00  1.4994286256738263e+00 1.9263279922248622e-09 0.0000000000000000e+00  6.8374664190450651e-01 -6.1681405177808978e-10 0.0000000000000000e+00  6.8374664138521268e-01 2.1858731704728101e-10 0.0000000000000000e+00  0.0000000000000000e+00 0.0000000000000000e+00 0.0000000000000000e+00  1.3878966656374738e+00 -1.1722714201943936e-08 0.0000000000000000e+00  1.4999230805919075e+00 -1.5471817724005944e-08 0.0000000000000000e+00  5.2278399221379079e-01 -3.5087739058782950e-09 0.0000000000000000e+00  5.2278398641943769e-01 -1.2892779105506784e-09 0.0000000000000000e+00  0.0000000000000000e+00 0.0000000000000000e+00 0.0000000000000000e+00  1.0547575488301124e+00 -4.6321360587867915e-09 0.0000000000000000e+00  1.3236896060468153e+00 -2.3951741056512836e-08 0.0000000000000000e+00  6.2110989425818730e-01 -2.0768125869992901e-08 0.0000000000000000e+00  6.2110986445559657e-01 -1.0765808088200555e-08 0.0000000000000000e+00  0.0000000000000000e+00 -3.6987346337958203e-16 0.0000000000000000e+00  1.0081938821664735e+00 -2.2927175014281409e-08 0.0000000000000000e+00  1.3639553271928402e+00 -5.2289544777517285e-08 0.0000000000000000e+00  1.3943928594447119e+00 -1.2094794467990913e-07 0.0000000000000000e+00  1.4981010481328902e+00 -8.9144497306153769e-08 0.0000000000000000e+00  6.8454163559620229e-01 -8.8043648977271290e-04 0.0000000000000000e+00  6.8370167361293843e-01 -1.2674271993770274e-04 0.0000000000000000e+00  0.0000000000000000e+00 0.0000000000000000e+00 0.0000000000000000e+00  1.4132441048815856e+00 -3.9527761890722733e-03 0.0000000000000000e+00  1.4201161354880287e+00 -9.2879030549613553e-04 0.0000000000000000e+00  6.5070943367196521e-01 -6.7690155454614612e-08 0.0000000000000000e+00  6.5070933841528067e-01 -4.1655508665263218e-08 0.0000000000000000e+00  0.0000000000000000e+00 0.0000000000000000e+00 0.0000000000000000e+00  1.0976429701180253e+00 -9.7273527533547555e-08 0.0000000000000000e+00  1.4044876297479494e+00 -2.1295764926865703e-07 0.0000000000000000e+00  1.4050132031566782e+00 -3.3785280928724401e-07 0.0000000000000000e+00  1.4999986904803739e+00 -3.0470685142089823e-07 0.0000000000000000e+00  6.6305522622703983e-01 8.6983014390857677e-05 0.0000000000000000e+00  6.6318450114178573e-01 1.0299865983555149e-04 0.0000000000000000e+00  0.0000000000000000e+00 0.0000000000000000e+00 0.0000000000000000e+00  1.1480123677146892e+00 -1.3179619841575152e-04 0.0000000000000000e+00  1.4134520697645772e+00 9.6493677085483179e-06 0.0000000000000000e+00  1.4091262636263144e+00 2.4798031862067549e-04 0.0000000000000000e+00  1.5000858810052309e+00 9.6647871016916482e-05 0.0000000000000000e+00  6.1566351767159178e-01 -1.2975040028093410e-07 0.0000000000000000e+00  6.1566331044283684e-01 -9.7680094575869612e-08 0.0000000000000000e+00  0.0000000000000000e+00 0.0000000000000000e+00 0.0000000000000000e+00  1.0939551017285589e+00 -2.6528434115298974e-07 0.0000000000000000e+00  1.3930570646506821e+00 -4.998566240672658