<?xml version="1.0"?>
<VTKFile type="UnstructuredGrid"  version="0.1"  >
<UnstructuredGrid>
<Piece  NumberOfPoints="525" NumberOfCells="924">
<Points>
<DataArray  type="Float64"  NumberOfComponents="3"  format="ascii">0 0 0  2.2 0 0  2.2 0.41 0  0 0.41 0  0.15 0.2 0  0.25 0.2 0  0.2 0.15 0  0.2 0.25 0  0.104762 0 0  0.209524 0 0  0.314286 0 0  0.419048 0 0  0.52381 0 0  0.628571 0 0  0.733333 0 0  0.838095 0 0  0.9428569999999999 0 0  1.04762 0 0  1.15238 0 0  1.25714 0 0  1.3619 0 0  1.46667 0 0  1.57143 0 0  1.67619 0 0  1.78095 0 0  1.88571 0 0  1.99048 0 0  2.09524 0 0  2.2 0.1025 0  2.2 0.205 0  2.2 0.3075 0  2.1 0.41 0  2 0.41 0  1.9 0.41 0  1.8 0.41 0  1.7 0.41 0  1.6 0.41 0  1.5 0.41 0  1.4 0.41 0  1.3 0.41 0  1.2 0.41 0  1.1 0.41 0  1 0.41 0  0.9 0.41 0  0.8 0.41 0  0.7 0.41 0  0.6 0.41 0  0.5 0.41 0  0.4 0.41 0  0.3 0.41 0  0.2 0.41 0  0.1 0.41 0  0 0.3075 0  0 0.205 0  0 0.1025 0  0.1566987973585577 0.2250001169958213 0  0.1749998830041787 0.2433012026414423 0  0.2250001169958213 0.2433012026414423 0  0.2433012026414423 0.2250001169958213 0  0.2433012026414423 0.1749998830041787 0  0.2250001169958213 0.1566987973585577 0  0.1749998830041787 0.1566987973585577 0  0.1566987973585577 0.1749998830041787 0  0.352033 0.262216 0  1.04579 0.252253 0  1.24065 0.243419 0  0.985775 0.171509 0  1.30324 0.187395 0  0.890988 0.190768 0  1.39085 0.202767 0  0.801464 0.204685 0  1.49904 0.204666 0  0.704267 0.202289 0  1.60238 0.204951 0  0.487789 0.19191 0  1.72935 0.219637 0  1.83335 0.187427 0  2.03359 0.193642 0  0.314663 0.307348 0  0.249039 0.333583 0  2.12147 0.253405 0  2.06373 0.0836837 0  0.0734726 0.267055 0  0.143989 0.0677174 0  0.0613613 0.33781 0  0.299628 0.236829 0  0.527114 0.295386 0  0.262384 0.26549 0  0.275777 0.18341 0  1.74578 0.330928 0  1.84001 0.302448 0  1.64998 0.313838 0  0.648421 0.302367 0  1.54544 0.308508 0  0.755686 0.306156 0  1.42668 0.314809 0  0.870524 0.298596 0  1.22553 0.112785 0  1.05603 0.147372 0  0.969346 0.329867 0  1.32527 0.276284 0  2.02914 0.29511 0  1.88168 0.119486 0  1.79545 0.104842 0  1.35688 0.0892539 0  1.69041 0.105324 0  0.914199 0.09555660000000001 0  1.58234 0.102923 0  0.61843 0.10815 0  1.47999 0.101161 0  0.725217 0.104273 0  0.821727 0.102306 0  1.96725 0.105778 0  0.418624 0.241547 0  0.135226 0.239087 0  1.14921 0.314841 0  0.404508 0.333259 0  0.590155 0.206269 0  2.12554 0.150731 0  1.93166 0.22436 0  0.104689 0.190046 0  0.267856 0.07447529999999999 0  0.269368 0.221581 0  0.434446 0.114927 0  1.0089 0.07933809999999999 0  0.953023 0.246698 0  1.25853 0.33355 0  1.05268 0.340828 0  2.1369 0.067383 0  0.522398 0.112537 0  1.3421 0.348929 0  0.215186 0.289473 0  0.203197 0.335348 0  1.13984 0.190728 0  1.93813 0.330504 0  1.10505 0.0883705 0  0.341988 0.0824728 0  0.253113 0.138035 0  0.291932 0.131907 0  0.203713 0.102439 0  0.150375 0.134668 0  0.151494 0.309119 0  0.354384 0.17896 0  0.06853670000000001 0.100776 0  0.424128 0.180088 0  0.474925 0.0568661 0  2.10843 0.347669 0  2.160735 0.2804525 0  2.160735 0.2292025 0  2.2 0.25625 0  2.079485 0.04184185 0  2.027105 0.04184185 0  2.04286 0 0  0.1767565 0.0338587 0  0.1243755 0.0338587 0  0.157143 0 0  0.08068065000000001 0.373905 0  0.03068065 0.373905 0  0.05 0.41 0  0.03068065 0.322655 0  0 0.35875 0  0.281851 0.3204655 0  0.2745195 0.3717915 0  0.3073315 0.358674 0  0.06741695 0.3024325 0  0.0367363 0.2872775 0  0.3071455 0.2720885 0  0.3258305 0.2495225 0  0.333348 0.284782 0  0.2557115 0.2995365 0  0.2885235 0.286419 0  2.075305 0.2742575 0  2.031365 0.244376 0  2.07753 0.2235235 0  2.01549 0.09473085000000001 0  1.978865 0.052889 0  2.00042 0.14971 0  2.04866 0.13866285 0  0.472869 0.2684665 0  0.4532065 0.2167285 0  0.5074514999999999 0.243648 0  2.16277 0.1778655 0  2.16277 0.1266155 0  2.2 0.15375 0  1.90667 0.171923 0  1.882505 0.2058935 0  1.857515 0.1534565 0  1.885835 0.263404 0  1.83668 0.2449375 0  0.6042925 0.1572095 0  0.647211 0.204279 0  0.6613485 0.1552195 0  0.3595855 0.3203035 0  0.3782705 0.2977375 0  0.155113 0.241194 0  0.1459625 0.2320435 0  0.1646446609406726 0.2353553390593274 0  0.259539 0.179205 0  0.2628885 0.191705 0  0.2482962819455563 0.1870590127797247 0  0.281006 0.2511595 0  1.0209025 0.1594405 0  1.05091 0.1998125 0  1.0157825 0.211881 0  1.264385 0.15009 0  1.23309 0.178102 0  1.271945 0.215407 0  1.291205 0.10101945 0  1.33006 0.13832445 0  0.928528 0.0477783 0  0.876147 0.0477783 0  0.890476 0 0  0.9025935 0.1431623 0  0.9499869999999999 0.1335328 0  0.9383815 0.1811385 0  0.867963 0.0989313 0  0.8563575 0.146537 0  0.8299110000000001 0.051153 0  1.411775 0.04462695 0  1.35939 0.04462695 0  1.414285 0 0  1.373865 0.14601045 0  1.347045 0.195081 0  1.418435 0.09520745 0  1.43542 0.151964 0  1.47333 0.0505805 0  0.7775300000000001 0.051153 0  0.785714 0 0  0.8115954999999999 0.1534955 0  0.8462259999999999 0.1977265 0  0.7734719999999999 0.1032895 0  0.7633405 0.154479 0  0.729275 0.0521365 0  1.52571 0.0505805 0  1.51905 0 0  1.489515 0.1529135 0  1.444945 0.2037165 0  1.531165 0.102042 0  1.54069 0.1537945 0  1.576885 0.0514615 0  1.9804 0.259735 0  1.982625 0.209001 0  1.820005 0.356224 0  1.870005 0.356224 0  1.85 0.41 0  1.78468 0.2610425 0  1.78135 0.203532 0  1.72289 0.370464 0  1.77289 0.370464 0  1.75 0.41 0  1.792895 0.316688 0  1.737565 0.2752825 0  1.62499 0.361919 0  1.67499 0.361919 0  1.65 0.41 0  1.69788 0.322383 0  1.689665 0.2667375 0  1.62618 0.2593945 0  1.665865 0.212294 0  0.6242105 0.3561835 0  0.6742105 0.3561835 0  0.6499999999999999 0.41 0  0.6192880000000001 0.254318 0  0.6763440000000001 0.252328 0  1.52272 0.359254 0  1.57272 0.359254 0  1.55 0.41 0  1.59771 0.311173 0  1.57391 0.2567295 0  1.52224 0.256587 0  1.55071 0.2048085 0  0.727843 0.358078 0  0.7778430000000001 0.358078 0  0.75 0.41 0  0.7020535 0.3042615 0  0.7299765 0.2542225 0  0.778575 0.2554205 0  0.7528655 0.203487 0  1.41334 0.3624045 0  1.46334 0.3624045 0  1.45 0.41 0  1.48606 0.3116585 0  1.46286 0.2597375 0  1.408765 0.258788 0  0.8352619999999999 0.354298 0  0.885262 0.354298 0  0.8500000000000001 0.41 0  0.813105 0.302376 0  0.8359939999999999 0.2516405 0  0.880756 0.244682 0  0.9346730000000001 0.3699335 0  0.984673 0.3699335 0  0.95 0.41 0  0.9199349999999999 0.3142315 0  0.676894 0.0521365 0  0.680952 0 0  0.714742 0.153281 0  0.6718235 0.1062115 0  0.6235005 0.054075 0  1.629265 0.0514615 0  1.62381 0 0  1.59236 0.153937 0  1.636375 0.1041235 0  1.646395 0.1551375 0  1.6833 0.052662 0  1.73568 0.052662 0  1.72857 0 0  1.70988 0.1624805 0  1.74293 0.105083 0  1.7624 0.1622395 0  1.7882 0.052421 0  1.84058 0.052421 0  1.83333 0 0  1.8144 0.1461345 0  1.838565 0.112164 0  1.883695 0.059743 0  1.124605 0.3624205 0  1.174605 0.3624205 0  1.15 0.41 0  1.314255 0.2318395 0  1.28296 0.2598515 0  1.35806 0.2395255 0  1.375975 0.2955465 0  1.92648 0.052889 0  1.938095 0 0  1.924465 0.112632 0  1.949455 0.165069 0  0.352254 0.3716295 0  0.402254 0.3716295 0  0.35 0.41 0  0.513557 0.352693 0  0.563557 0.352693 0  0.55 0.41 0  0.5877675 0.2988765 0  0.5586344999999999 0.2508275 0  0.538972 0.1990895 0  0.452254 0.3716295 0  0.45 0.41 0  0.465811 0.3143225 0  0.411566 0.287403 0  0.3853285 0.2518815 0  0.1199575 0.2145665 0  0.0890808 0.2285505 0  0.1043493 0.253071 0  0.2245195 0.3717915 0  0.25 0.41 0  0.291071 0.03723765 0  0.23869 0.03723765 0  0.261905 0 0  0.265876 0.2435355 0  0.2563345 0.2232905 0  0.2528425 0.245245 0  0.284498 0.229205 0  1.032465 0.11335505 0  0.9973375 0.12542355 0  0.9615494999999999 0.08744735000000001 0  0.9220055 0.218733 0  0.9693989999999999 0.2091035 0  0.9611845 0.2882825 0  0.9117735 0.272647 0  1.229265 0.371775 0  1.279265 0.371775 0  1.25 0.41 0  1.02634 0.375414 0  1.07634 0.375414 0  1.05 0.41 0  1.011013 0.3353475 0  2.11607 0.0336915 0  2.16845 0.0336915 0  2.14762 0 0  2.16845 0.0849415 0  2.2 0.05125 0  2.100315 0.07553335 0  0.5562765000000001 0.159403 0  0.570414 0.1103435 0  0.5050935 0.1522235 0  1.32105 0.3794645 0  1.37105 0.3794645 0  1.35 0.41 0  1.333685 0.3126065 0  1.38439 0.331869 0  0.9994065 0.2494755 0  1.007568 0.29106 0  1.300315 0.3412395 0  1.2919 0.304917 0  2.13122 0.109057 0  2.094635 0.11720735 0  0.2725725 0.2024955 0  0.259684 0.2107905 0  0.2482962819455563 0.2129409872202754 0  0.2877025 0.2101195 0  2.123505 0.202068 0  2.079565 0.1721865 0  1.02826 0.03966905 0  0.9758784999999999 0.03966905 0  0.9952384999999999 0 0  1.049235 0.2965405 0  1.100945 0.3278345 0  1.0975 0.283547 0  0.5711200000000001 0.054075 0  0.5761905 0 0  0.523104 0.0562685 0  1.24959 0.2884845 0  1.20387 0.3241955 0  1.19493 0.27913 0  0.238785 0.2774815 0  0.2321125 0.311528 0  0.226118 0.3344655 0  0.2015985 0.3726739999999999 0  1.144525 0.2527845 0  1.190245 0.2170735 0  1.092815 0.2214905 0  0.2091915 0.3124105 0  0.220093 0.266387 0  0.243692 0.2543955 0  0.2353553390593274 0.2353553390593274 0  0.478422 0.113732 0  0.4611175 0.1534185 0  1.919065 0.370252 0  1.969065 0.370252 0  1.95 0.41 0  1.983635 0.312807 0  2.01457 0.352555 0  1.88907 0.316476 0  1.934895 0.277432 0  1.182685 0.1517565 0  1.097935 0.16905 0  1.128715 0.04418525 0  1.076335 0.04418525 0  1.1 0 0  1.056975 0.08385429999999999 0  1.08054 0.11787125 0  1.122445 0.13954925 0  1.16529 0.10057775 0  0.304922 0.07847404999999999 0  0.328137 0.0412364 0  0.380518 0.0412364 0  0.366667 0 0  0.388217 0.09869990000000001 0  0.426747 0.0574635 0  0.31696 0.1071899 0  0.279894 0.10319115 0  0.2725225 0.134971 0  0.2604845 0.10625515 0  0.228413 0.120237 0  0.2143565 0.129569 0  0.2390565 0.147367 0  1.30701 0.04462695 0  1.30952 0 0  1.241335 0.0563925 0  0.2357845 0.08845715 0  1.188955 0.0563925 0  1.20476 0 0  0.2066185 0.0512195 0  0.173851 0.08507819999999999 0  0.0367363 0.2360275 0  0 0.25625 0  0.264445 0.1607225 0  0.248207 0.1565175 0  0.2353553390593274 0.1646446609406726 0  0.2838545 0.1576585 0  0.130694 0.182523 0  0.1273445 0.195023 0  0.1517037180544437 0.1870590127797247 0  0.127532 0.162357 0  0.153537 0.154834 0  0.0523445 0.197523 0  0
[...]
<PointData  Vectors="u"> 
<DataArray  type="Float64"  Name="u"  NumberOfComponents="3" format="ascii">-2.1821645729101413e-15 1.9065832419699365e-15 0.0000000000000000e+00  0.0000000000000000e+00 0.0000000000000000e+00 0.0000000000000000e+00  0.0000000000000000e+00 0.0000000000000000e+00 0.0000000000000000e+00  0.0000000000000000e+00 0.0000000000000000e+00 0.0000000000000000e+00  0.0000000000000000e+00 0.0000000000000000e+00 0.0000000000000000e+00  0.0000000000000000e+00 0.0000000000000000e+00 0.0000000000000000e+00  0.0000000000000000e+00 0.0000000000000000e+00 0.0000000000000000e+00  0.0000000000000000e+00 0.0000000000000000e+00 0.0000000000000000e+00  0.0000000000000000e+00 0.0000000000000000e+00 0.0000000000000000e+00  0.0000000000000000e+00 3.3886559812175307e-16 0.0000000000000000e+00  0.0000000000000000e+00 8.7724567839589049e-16 0.0000000000000000e+00  0.0000000000000000e+00 0.0000000000000000e+00 0.0000000000000000e+00  0.0000000000000000e+00 0.0000000000000000e+00 0.0000000000000000e+00  0.0000000000000000e+00 -1.7301083491415928e-15 0.0000000000000000e+00  0.0000000000000000e+00 -7.0093042516485936e-16 0.0000000000000000e+00  0.0000000000000000e+00 -5.0142393769949903e-16 0.0000000000000000e+00  0.0000000000000000e+00 -5.0538753522830933e-16 0.0000000000000000e+00  0.0000000000000000e+00 0.0000000000000000e+00 0.0000000000000000e+00  0.0000000000000000e+00 3.3439323118237979e-16 0.0000000000000000e+00  0.0000000000000000e+00 0.0000000000000000e+00 0.0000000000000000e+00  6.9582534504013710e-16 0.0000000000000000e+00 0.0000000000000000e+00  -4.3658761681551875e-16 0.0000000000000000e+00 0.0000000000000000e+00  0.0000000000000000e+00 0.0000000000000000e+00 0.0000000000000000e+00  -4.4780697511386963e-16 0.0000000000000000e+00 0.0000000000000000e+00  4.0600274665910804e-16 0.0000000000000000e+00 0.0000000000000000e+00  0.0000000000000000e+00 -1.2976316308111427e-15 0.0000000000000000e+00  0.0000000000000000e+00 0.0000000000000000e+00 0.0000000000000000e+00  0.0000000000000000e+00 0.0000000000000000e+00 0.0000000000000000e+00  1.1250000003551910e+00 3.0623289286329131e-10 0.0000000000000000e+00  1.5000000000001532e+00 4.9739385544129691e-10 0.0000000000000000e+00  1.1249999996450259e+00 3.0579680575980086e-10 0.0000000000000000e+00  0.0000000000000000e+00 0.0000000000000000e+00 0.0000000000000000e+00  0.0000000000000000e+00 0.0000000000000000e+00 0.0000000000000000e+00  0.0000000000000000e+00 0.0000000000000000e+00 0.0000000000000000e+00  0.0000000000000000e+00 0.0000000000000000e+00 0.0000000000000000e+00  0.0000000000000000e+00 0.0000000000000000e+00 0.0000000000000000e+00  0.0000000000000000e+00 0.0000000000000000e+00 0.0000000000000000e+00  0.0000000000000000e+00 0.0000000000000000e+00 0.0000000000000000e+00  0.0000000000000000e+00 0.0000000000000000e+00 0.0000000000000000e+00  0.0000000000000000e+00 0.0000000000000000e+00 0.0000000000000000e+00  0.0000000000000000e+00 -5.2811812657176427e-16 0.0000000000000000e+00  0.0000000000000000e+00 0.0000000000000000e+00 0.0000000000000000e+00  0.0000000000000000e+00 6.4432922174342846e-16 0.0000000000000000e+00  0.0000000000000000e+00 8.6229749421699854e-16 0.0000000000000000e+00  0.0000000000000000e+00 0.0000000000000000e+00 0.0000000000000000e+00  0.0000000000000000e+00 0.0000000000000000e+00 0.0000000000000000e+00  0.0000000000000000e+00 0.0000000000000000e+00 0.0000000000000000e+00  0.0000000000000000e+00 0.0000000000000000e+00 0.0000000000000000e+00  0.0000000000000000e+00 0.0000000000000000e+00 0.0000000000000000e+00  0.0000000000000000e+00 -1.4866943444387818e-15 0.0000000000000000e+00  0.0000000000000000e+00 0.0000000000000000e+00 0.0000000000000000e+00  0.0000000000000000e+00 0.0000000000000000e+00 0.0000000000000000e+00  1.1250000000000000e+00 0.0000000000000000e+00 0.0000000000000000e+00  1.5000000000000024e+00 0.0000000000000000e+00 0.0000000000000000e+00  1.1250000000000016e+00 0.0000000000000000e+00 0.0000000000000000e+00  -3.2736286240476175e-16 -3.2736774302023419e-16 0.0000000000000000e+00  -3.7586125563052280e-15 -1.1745654553738344e-15 0.0000000000000000e+00  0.0000000000000000e+00 0.0000000000000000e+00 0.0000000000000000e+00  0.0000000000000000e+00 0.0000000000000000e+00 0.0000000000000000e+00  0.0000000000000000e+00 0.0000000000000000e+00 0.0000000000000000e+00  -1.3488147198396272e-15 0.0000000000000000e+00 0.0000000000000000e+00  0.0000000000000000e+00 3.7047884812154845e-16 0.0000000000000000e+00  0.0000000000000000e+00 0.0000000000000000e+00 0.0000000000000000e+00  1.2548528619928800e+00 -3.2743257360486550e-01 0.0000000000000000e+00  1.4202798355795889e+00 4.9595364442819586e-05 0.0000000000000000e+00  1.4473151487337366e+00 5.3207798787032618e-06 0.0000000000000000e+00  1.4599981180048112e+00 7.7720639001552106e-05 0.0000000000000000e+00  1.4889375210176004e+00 1.9258596662210418e-06 0.0000000000000000e+00  1.4928174169525952e+00 1.0033328513827870e-04 0.0000000000000000e+00  1.4998220104589690e+00 2.4193361080891537e-08 0.0000000000000000e+00  1.5000919554045307e+00 -7.5767155599475858e-05 0.0000000000000000e+00  1.4999960166007344e+00 -3.0261617584577551e-07 0.0000000000000000e+00  1.4999141547432293e+00 -1.1506669982717702e-03 0.0000000000000000e+00  1.4999999142687175e+00 -1.7388703955917122e-07 0.0000000000000000e+00  1.4590761127910530e+00 -8.1518691629878619e-03 0.0000000000000000e+00  1.4923530656656410e+00 -4.9215679328500284e-08 0.0000000000000000e+00  1.4889776195883768e+00 -1.1564185126200949e-08 0.0000000000000000e+00  1.4953954493984640e+00 7.7813733810198890e-10 0.0000000000000000e+00  1.4289573320606457e+00 -4.2958696472203645e-01 0.0000000000000000e+00  1.7560094578277496e+00 -2.7554266953448320e-01 0.0000000000000000e+00  1.4163696358129876e+00 5.9482608668014128e-10 0.0000000000000000e+00  9.7468252404432021e-01 3.7459436649960277e-10 0.0000000000000000e+00  1.2754209266041416e+00 5.6430725206638621e-01 0.0000000000000000e+00  1.5550496452750546e+00 -2.9591190135212669e-01 0.0000000000000000e+00  1.0826312993050298e+00 2.9462240393597988e-01 0.0000000000000000e+00  8.2730243040923557e-01 -4.1617221710040908e-01 0.0000000000000000e+00  1.2183517078494521e+00 -2.3626531038514646e-02 0.0000000000000000e+00  1.1319896522949597e+00 -6.1036655558038955e-01 0.0000000000000000e+00  3.3988712930526505e-01 2.2041409593242514e-01 0.0000000000000000e+00  9.3398474625713035e-01 -1.3734936442173156e-08 0.0000000000000000e+00  1.1610548732806483e+00 -5.4685176511388574e-09 0.0000000000000000e+00  1.0771906646728939e+00 -5.6342437298743451e-08 0.0000000000000000e+00  1.1628935626538477e+00 -2.1310156846492613e-03 0.0000000000000000e+00  1.1175883380887035e+00 -1.4200276964734463e-07 0.0000000000000000e+00  1.1346651400118950e+00 -7.2721763232439215e-05 0.0000000000000000e+00  1.0696132006262482e+00 -1.4998197845739803e-07 0.0000000000000000e+00  1.1871696671248684e+00 9.9620953989228554e-05 0.0000000000000000e+00  1.1964831191093370e+00 4.2156296430022277e-06 0.0000000000000000e+00  1.3814887617124414e+00 4.1348469284674994e-05 0.0000000000000000e+00  9.4340112120491770e-01 4.0897089860340250e-05 0.0000000000000000e+00  1.3186291306102895e+00 8.0603430510554806e-07 0.0000000000000000e+00  1.2101792219811565e+00 5.6093357313492966e-10 0.0000000000000000e+00  1.2389894990569301e+00 -2.8153450361126039e-09 0.0000000000000000e+00  1.1419408025576219e+00 -1.0905844477416729e-08 0.0000000000000000e+00  1.0218142045217060e+00 1.0243214706463792e-07 0.0000000000000000e+00  1.1453787201736600e+00 -4.2235943055684535e-08 0.0000000000000000e+00  1.0725893703275193e+00 4.7272342290345892e-05 0.0000000000000000e+00  1.1280885840806605e+00 -1.1228021668947671e-07 0.0000000000000000e+00  1.1638915011472999e+00 -6.2830251485642764e-04 0.0000000000000000e+00  1.1151380922288026e+00 -1.8396354256530854e-07 0.0000000000000000e+00  1.1377719228736793e+00 -4.5654244432127150e-04 0.0000000000000000e+00  1.1237274528387180e+00 -3.2306760886514987e-05 0.0000000000000000e+00  1.1486018353273562e+00 1.8876279125310919e-10 0.0000000000000000e+00  1.3677470980851465e+00 -1.0959065741577392e-01 0.0000000000000000e+00  6.0306493033463671e-01 5.5023239556829384e-01 0.0000000000000000e+00  1.0693519236309563e+00 9.0569245247648615e-06 0.0000000000000000e+00  1.0378354048978329e+00 -1.1499059351274749e-01 0.0000000000000000e+00  1.4973337364025225e+00 -6.0741067507033269e-03 0.0000000000000000e+00  1.3948795592431587e+00 5.6704120677883643e-10 0.0000000000000000e+00  1.4866219058110566e+00 -1.1827166793507088e-09 0.0000000000000000e+00  6.3127638990696167e-01 -1.0330510024155407e-01 0.0000000000000000e+00  1.5424985619718923e+00 3.2971665660946914e-01 0.0000000000000000e+00  3.1529991663744728e-01 -2.9307468274333548e-01 0.0000000000000000e+00  1.2048188155686235e+00 7.8320414643395092e-02 0.0000000000000000e+00  9.3642675424796973e-01 2.6014824722794257e-05 0.0000000000000000e+00  1.4378956986585951e+00 9.7460140475836047e-05 0.0000000000000000e+00  9.1016799862091213e-01 1.2494725381098284e-06 0.0000000000000000e+00  8.4145849533225781e-01 1.5607959821742300e-05 0.0000000000000000e+00  8.2402955357910124e-01 1.9913164796982337e-10 0.0000000000000000e+00  1.1913023995235674e+00 1.0531891755971148e-02 0.0000000000000000e+00  7.6059924549792679e-01 7.4629377915336894e-08 0.0000000000000000e+00  1.7056779356976866e+00 -1.9326382255751456e-01 0.0000000000000000e+00  1.8951762552363036e+00 -1.1105351940679057e-02 0.0000000000000000e+00  1.4927321543801999e+00 2.1474590319073447e-05 0.0000000000000000e+00  9.3778986120738228e-01 -7.6957293132404984e-11 0.0000000000000000e+00  1.0145056179630980e+00 1.3200804212219675e-05 0.0000000000000000e+00  1.1810821229225372e+00 2.5559633904285611e-01 0.0000000000000000e+00  1.0035182257159303e+00 5.5156345747645064e-01 0.0000000000000000e+00  1.1457291434663908e+00 5.4659169948818531e-01 0.0000000000000000e+00  1.7645666102649593e+00 3.6249694439665137e-02 0.0000000000000000e+00  1.0982638477834559e+00 -5.7216997475695675e-01 0.0000000000000000e+00  1.7770687520957220e+00 4.6660320499264946e-01 0.0000000000000000e+00  1.1096495729650746e+00 1.0969159545114358e-01 0.0000000000000000e+00  1.2389610471648451e+00 -4.2099864306699608e-01 0.0000000000000000e+00  1.3644714703523959e+00 2.3054580846252722e-02 0.0000000000000000e+00  7.3393193524366263e-01 1.6907448870710693e-02 0.0000000000000000e+00  7.7348803405073885e-01 1.9843710089731981e-10 0.0000000000000000e+00  1.2967966769080979e+00 4.2126896095128469e-10 0.0000000000000000e+00  1.4790924088867898e+00 5.3351987920952927e-10 0.0000000000000000e+00  1.4062499997462532e+00 4.4500231470093640e-10 0.0000000000000000e+00  5.4983050945751566e-01 1.1549756290312663e-10 0.0000000000000000e+00  5.4983050973208958e-01 1.3737317635952833e-10 0.0000000000000000e+00  0.0000000000000000e+00 0.0000000000000000e+00 0.0000000000000000e+00  1.1559461223986365e+00 -4.9573857623910061e-02 0.0000000000000000e+00  9.3210133921071625e-01 -1.0767519317173413e-01 0.0000000000000000e+00  0.0000000000000000e+00 -4.7669392738371800e-16 0.0000000000000000e+00  7.4035250848847833e-01 1.1424426992164105e-01 0.0000000000000000e+00  5.2791857779041640e-01 5.4615876902303878e-02 0.0000000000000000e+00  0.0000000000000000e+00 -4.0396694149453297e-16 0.0000000000000000e+00  1.0639821247407319e+00 2.3034786037153324e-01 0.0000000000000000e+00  6.5625000000000067e-01 0.0000000000000000e+00 0.0000000000000000e+00  1.6012378933147107e+00 -4.1487640727194408e-01 0.0000000000000000e+00  1.0908260584905267e+00 -1.0840760792296723e-01 0.0000000000000000e+00  1.1411835060300779e+00 -1.7082314503859397e-01 0.0000000000000000e+00  1.3080507620249215e+00 4.9477275255484221e-01 0.0000000000000000e+00  1.2801304403977845e+00 3.5769169531267975e-01 0.0000000000000000e+00  1.2510835592135878e+00 -5.3285244771504126e-01 0.0000000000000000e+00  1.1056861481889875e+00 -3.9346738837548378e-01 0.0000000000000000e+00  1.3247105921312323e+00 -4.1852235328203830e-01 0.0000000000000000e+00  1.6779134040365660e+00 -4.9624817627633355e-01 0.0000000000000000e+00  1.4149812464327671e+00 -5.7610417019799265e-01 0.0000000000000000e+00  1.3287947176621868e+00 6.3745471485317784e-10 0.0000000000000000e+00  1.4446590342031533e+00 7.3598353413076512e-10 0.0000000000000000e+00  1.4877530020793757e+00 7.7404485036347344e-10 0.0000000000000000e+00  1.0659981413575055e+00 4.3970897139415738e-10 0.0000000000000000e+00  6.7414314273773368e-01 1.5894599457265725e-10 0.0000000000000000e+00  1.3908869455048438e+00 5.3893924713418218e-10 0.0000000000000000e+00  1.3429285860631746e+00 6.7708006108977526e-10 0.0000000000000000e+00  1.3535971128903161e+00 -6.1482369382386270e-02 0.0000000000000000e+00  1.4319883926984962e+00 -3.9381026981418668e-02 0.0000000000000000e+00  1.4359758548567187e+00 -3.0538898466987017e-02 0.0000000000000000e+00  1.4737198898871595e+00 5.2596586011329072e-10 0.0000000000000000e+00  1.2806973291682586e+00 4.0894270284371100e-10 0.0000000000000000e+00  1.4062500002541520e+00 4.4512710167342096e-10 0.0000000000000000e+00  1.4609486760568979e+00 -2.4691591284563997e-09 0.0000000000000000e+00  1.4999715047441649e+00 -4.7389184811833938e-09 0.0000000000000000e+00  1.4051731435694881e+00 -6.5072448556398897e-09 0.0000000000000000e+00  1.3782500698672107e+00 -3.4484847960920794e-09 0.0000000000000000e+00  1.4430694639744885e+00 -1.0117512152584363e-08 0.0000000000000000e+00  1.4161052835085308e+00 -2.0876384000145308e-03 0.0000000000000000e+00  1.4997510750362824e+00 -2.8200228483338946e-03 0.0000000000000000e+00  1.4110316427580516e+00 -1.5669682285587032e-03 0.0000000000000000e+00  1.2404200113895525e+00 -2.4648138973053094e-01 0.0000000000000000e+00  1.2787638800455090e+00 -2.3921843626260222e-01 0.0000000000000000e+00  4.0879518644933199e-01 3.6573428532355523e-01 0.0000000000000000e+00  3.1747641048885872e-01 3.7955949251050713e-01 0.0000000000000000e+00  0.0000000000000000e+00 0.0000000000000000e+00 0.0000000000000000e+00  1.7765148918715112e-01 2.3095919289633177e-01 0.0000000000000000e+00  1.1240399870115561e-01 9.3171991485750921e-02 0.0000000000000000e+00  0.0000000000000000e+00 -6.8051724811929975e-16 0.0000000000000000e+00  9.0825732897045230e-01 -5.6541532904044167e-01 0.0000000000000000e+00  1.4259431381437930e+00 5.8553876325696009e-05 0.0000000000000000e+00  1.4990427661912060e+00 5.2272749781641678e-05 0.0000000000000000e+00  1.4983066555349325e+00 6.9378589268937437e-05 0.0000000000000000e+00  1.3923825138014123e+00 3.3142060197323353e-06 0.0000000000000000e+00  1.4741769921596257e+00 6.2618187288848310e-06 0.0000000000000000e+00  1.4961340544038690e+00 3.4960835579663577e-06 0.0000000000000000e+00  1.1140887680143912e+00 1.1246087970748847e-06 0.0000000000000000e+00  1.3413219065183735e+00 7.6331754529429659e-07 0.0000000000000000e+00  6.1779666100980624e-01 1.5979237909922225e-05 0.0000000000000000e+00  6.1782409356885570e-01 1.2403095908314562e-05 0.0000000000000000e+00  0.0000000000000000e+00 1.4826533509287160e-15 0.0000000000000000e+00  1.3636145048673629e+00 7.6956859814822083e-05 0.0000000000000000e+00  1.3177739270382647e+00 7.1361669926989205e-05 0.0000000000000000e+00  1.4797175153034943e+00 9.8193188580869155e-05 0.0000000000000000e+00  1.0985762379896837e+00 3.1207296951105735e-05 0.0000000000000000e+00  1.3781301610123187e+00 4.0430273101546041e-05 0.0000000000000000e+00  6.5530528749425276e-01 -4.2668104409192147e-06 0.0000000000000000e+00  5.8199190800174172e-01 -5.1887631258459107e-08 0.0000000000000000e+00  5.8199186217981813e-01 1.1210844889027426e-09 0.0000000000000000e+00  0.0000000000000000e+00 0.0000000000000000e+00 0.0000000000000000e+00  1.3757962685361416e+00 1.3847828228433220e-07 0.0000000000000000e+00  1.4964882552103469e+00 6.5603413073218013e-07 0.0000000000000000e+00  1.0697412037831677e+00 -1.3498210106466102e-07 0.0000000000000000e+00  1.3996017284956139e+00 -2.2625139577840232e-07 0.0000000000000000e+00  6.4888551714668019e-01 -6.8160102432489380e-08 0.0000000000000000e+00  6.5525425924462100e-01 -5.5974657340789734e-05 0.0000000000000000e+00  0.0000000000000000e+00 6.3889435177562465e-16 0.0000000000000000e+00  1.4054560110898726e+00 -6.9432444463566045e-05 0.0000000000000000e+00  1.4981746618574900e+00 5.6874389123270245e-05 0.0000000000000000e+00  1.1308458708812299e+00 -1.8612374540594702e-04 0.0000000000000000e+00  1.4090224800302027e+00 -3.3683542928669138e-04 0.0000000000000000e+00  6.6586051845215977e-01 -1.4840390020690923e-04 0.0000000000000000e+00  6.4888562588894283e-01 -5.4446396854496509e-08 0.0000000000000000e+00  0.0000000000000000e+00 -3.9623238528218629e-16 0.0000000000000000e+00  1.4031644477775422e+00 -2.7323488212043177e-07 0.0000000000000000e+00  1.4999411937912579e+00 -2.6906143455256312e-07 0.0000000000000000e+00  1.1216410521426621e+00 -1.5483110788984674e-07 0.0000000000000000e+00  1.4064125897195843e+00 -2.2962096494833935e-07 0.0000000000000000e+00  6.5856961880249087e-01 -3.9056708274457544e-08 0.0000000000000000e+00  1.3930664991738557e+00 3.1346855684545228e-10 0.0000000000000000e+00  1.4994286257210032e+00 3.2131671914849563e-10 0.0000000000000000e+00  6.8374664666787055e-01 -2.1907896776232337e-09 0.0000000000000000e+00  6.8374664405737795e-01 -7.8382158333303442e-10 0.0000000000000000e+00  0.0000000000000000e+00 0.0000000000000000e+00 0.0000000000000000e+00  1.3878966714338921e+00 -2.0357643455395129e-08 0.0000000000000000e+00  1.4999230804302195e+00 -2.5696045545917150e-08 0.0000000000000000e+00  5.2278400185820983e-01 -5.2539109988072387e-09 0.0000000000000000e+00  5.2278399263389452e-01 -2.6023009813426633e-09 0.0000000000000000e+00  0.0000000000000000e+00 0.0000000000000000e+00 0.0000000000000000e+00  1.0547575565679139e+00 -9.3512350348310628e-09 0.0000000000000000e+00  1.3236896160020259e+00 -3.3734646938850356e-08 0.0000000000000000e+00  6.2110991310490271e-01 -2.2540495466330188e-08 0.0000000000000000e+00  6.2110987969472953e-01 -1.3405423622500832e-08 0.0000000000000000e+00  0.0000000000000000e+00 0.0000000000000000e+00 0.0000000000000000e+00  1.0081938982783234e+00 -2.9326698392612379e-08 0.0000000000000000e+00  1.3639553390094448e+00 -6.2765124039185140e-08 0.0000000000000000e+00  1.3943928708608175e+00 -1.2237336387422231e-07 0.0000000000000000e+00  1.4981010497351241e+00 -9.8874741838182701e-08 0.0000000000000000e+00  6.8549267448051099e-01 -1.1195029802603669e-03 0.0000000000000000e+00  6.8429979872749769e-01 -3.1415135618259436e-04 0.0000000000000000e+00  0.0000000000000000e+00 0.0000000000000000e+00 0.0000000000000000e+00  1.4141235383223592e+00 -5.1703866055878237e-03 0.0000000000000000e+00  1.4206020631157714e+00 -1.8164588879837156e-03 0.0000000000000000e+00  6.5070943751262933e-01 -5.5533857109293717e-08 0.0000000000000000e+00  6.5070935638115368e-01 -3.9348136144788986e-08 0.0000000000000000e+00  0.0000000000000000e+00 0.0000000000000000e+00 0.0000000000000000e+00  1.0976429882016139e+00 -9.4116026607355296e-08 0.0000000000000000e+00  1.4044876345331561e+00 -1.8721159798034602e-07 0.0000000000000000e+00  1.4050131873544864e+00 -2.5037666969224586e-07 0.0000000000000000e+00  1.4999986904246945e+00 -2.4664848908058971e-07 0.0000000000000000e+00  6.6337582027423991e-01 -2.6756476501576585e-05 0.0000000000000000e+00  6.6334950080673416e-01 3.5000328923949205e-05 0.0000000000000000e+00  0.0000000000000000e+00 0.0000000000000000e+00 0.0000000000000000e+00  1.1485788128972734e+00 -5.8655561336302823e-04 0.0000000000000000e+00  1.4137308506415840e+00 -5.5802821913596352e-04 0.0000000000000000e+00  1.4092826972196477e+00 -1.0123702214893318e-04 0.0000000000000000e+00  1.5000805194220725e+00 -4.2950899691333600e-04 0.0000000000000000e+00  6.1566336754954454e-01 -5.7392418237693561e-08 0.0000000000000000e+00  6.1566326349812250e-01 -6.3581682023217442e-08 0.0000000000000000e+00  0.0000000000000000e+00 0.0000000000000000e+00 0.0000000000000000e+00  1.0939550478237479e+00 -1.7639516536651153e-07 0.0000000000000000e+00  1.3930569847020011e+00 -2.6