<?xml version="1.0"?>
<VTKFile type="UnstructuredGrid"  version="0.1"  >
<UnstructuredGrid>
<Piece  NumberOfPoints="525" NumberOfCells="924">
<Points>
<DataArray  type="Float64"  NumberOfComponents="3"  format="ascii">0 0 0  2.2 0 0  2.2 0.41 0  0 0.41 0  0.15 0.2 0  0.25 0.2 0  0.2 0.15 0  0.2 0.25 0  0.104762 0 0  0.209524 0 0  0.314286 0 0  0.419048 0 0  0.52381 0 0  0.628571 0 0  0.733333 0 0  0.838095 0 0  0.9428569999999999 0 0  1.04762 0 0  1.15238 0 0  1.25714 0 0  1.3619 0 0  1.46667 0 0  1.57143 0 0  1.67619 0 0  1.78095 0 0  1.88571 0 0  1.99048 0 0  2.09524 0 0  2.2 0.1025 0  2.2 0.205 0  2.2 0.3075 0  2.1 0.41 0  2 0.41 0  1.9 0.41 0  1.8 0.41 0  1.7 0.41 0  1.6 0.41 0  1.5 0.41 0  1.4 0.41 0  1.3 0.41 0  1.2 0.41 0  1.1 0.41 0  1 0.41 0  0.9 0.41 0  0.8 0.41 0  0.7 0.41 0  0.6 0.41 0  0.5 0.41 0  0.4 0.41 0  0.3 0.41 0  0.2 0.41 0  0.1 0.41 0  0 0.3075 0  0 0.205 0  0 0.1025 0  0.1566987973585577 0.2250001169958213 0  0.1749998830041787 0.2433012026414423 0  0.2250001169958213 0.2433012026414423 0  0.2433012026414423 0.2250001169958213 0  0.2433012026414423 0.1749998830041787 0  0.2250001169958213 0.1566987973585577 0  0.1749998830041787 0.1566987973585577 0  0.1566987973585577 0.1749998830041787 0  0.352033 0.262216 0  1.04579 0.252253 0  1.24065 0.243419 0  0.985775 0.171509 0  1.30324 0.187395 0  0.890988 0.190768 0  1.39085 0.202767 0  0.801464 0.204685 0  1.49904 0.204666 0  0.704267 0.202289 0  1.60238 0.204951 0  0.487789 0.19191 0  1.72935 0.219637 0  1.83335 0.187427 0  2.03359 0.193642 0  0.314663 0.307348 0  0.249039 0.333583 0  2.12147 0.253405 0  2.06373 0.0836837 0  0.0734726 0.267055 0  0.143989 0.0677174 0  0.0613613 0.33781 0  0.299628 0.236829 0  0.527114 0.295386 0  0.262384 0.26549 0  0.275777 0.18341 0  1.74578 0.330928 0  1.84001 0.302448 0  1.64998 0.313838 0  0.648421 0.302367 0  1.54544 0.308508 0  0.755686 0.306156 0  1.42668 0.314809 0  0.870524 0.298596 0  1.22553 0.112785 0  1.05603 0.147372 0  0.969346 0.329867 0  1.32527 0.276284 0  2.02914 0.29511 0  1.88168 0.119486 0  1.79545 0.104842 0  1.35688 0.0892539 0  1.69041 0.105324 0  0.914199 0.09555660000000001 0  1.58234 0.102923 0  0.61843 0.10815 0  1.47999 0.101161 0  0.725217 0.104273 0  0.821727 0.102306 0  1.96725 0.105778 0  0.418624 0.241547 0  0.135226 0.239087 0  1.14921 0.314841 0  0.404508 0.333259 0  0.590155 0.206269 0  2.12554 0.150731 0  1.93166 0.22436 0  0.104689 0.190046 0  0.267856 0.07447529999999999 0  0.269368 0.221581 0  0.434446 0.114927 0  1.0089 0.07933809999999999 0  0.953023 0.246698 0  1.25853 0.33355 0  1.05268 0.340828 0  2.1369 0.067383 0  0.522398 0.112537 0  1.3421 0.348929 0  0.215186 0.289473 0  0.203197 0.335348 0  1.13984 0.190728 0  1.93813 0.330504 0  1.10505 0.0883705 0  0.341988 0.0824728 0  0.253113 0.138035 0  0.291932 0.131907 0  0.203713 0.102439 0  0.150375 0.134668 0  0.151494 0.309119 0  0.354384 0.17896 0  0.06853670000000001 0.100776 0  0.424128 0.180088 0  0.474925 0.0568661 0  2.10843 0.347669 0  2.160735 0.2804525 0  2.160735 0.2292025 0  2.2 0.25625 0  2.079485 0.04184185 0  2.027105 0.04184185 0  2.04286 0 0  0.1767565 0.0338587 0  0.1243755 0.0338587 0  0.157143 0 0  0.08068065000000001 0.373905 0  0.03068065 0.373905 0  0.05 0.41 0  0.03068065 0.322655 0  0 0.35875 0  0.281851 0.3204655 0  0.2745195 0.3717915 0  0.3073315 0.358674 0  0.06741695 0.3024325 0  0.0367363 0.2872775 0  0.3071455 0.2720885 0  0.3258305 0.2495225 0  0.333348 0.284782 0  0.2557115 0.2995365 0  0.2885235 0.286419 0  2.075305 0.2742575 0  2.031365 0.244376 0  2.07753 0.2235235 0  2.01549 0.09473085000000001 0  1.978865 0.052889 0  2.00042 0.14971 0  2.04866 0.13866285 0  0.472869 0.2684665 0  0.4532065 0.2167285 0  0.5074514999999999 0.243648 0  2.16277 0.1778655 0  2.16277 0.1266155 0  2.2 0.15375 0  1.90667 0.171923 0  1.882505 0.2058935 0  1.857515 0.1534565 0  1.885835 0.263404 0  1.83668 0.2449375 0  0.6042925 0.1572095 0  0.647211 0.204279 0  0.6613485 0.1552195 0  0.3595855 0.3203035 0  0.3782705 0.2977375 0  0.155113 0.241194 0  0.1459625 0.2320435 0  0.1646446609406726 0.2353553390593274 0  0.259539 0.179205 0  0.2628885 0.191705 0  0.2482962819455563 0.1870590127797247 0  0.281006 0.2511595 0  1.0209025 0.1594405 0  1.05091 0.1998125 0  1.0157825 0.211881 0  1.264385 0.15009 0  1.23309 0.178102 0  1.271945 0.215407 0  1.291205 0.10101945 0  1.33006 0.13832445 0  0.928528 0.0477783 0  0.876147 0.0477783 0  0.890476 0 0  0.9025935 0.1431623 0  0.9499869999999999 0.1335328 0  0.9383815 0.1811385 0  0.867963 0.0989313 0  0.8563575 0.146537 0  0.8299110000000001 0.051153 0  1.411775 0.04462695 0  1.35939 0.04462695 0  1.414285 0 0  1.373865 0.14601045 0  1.347045 0.195081 0  1.418435 0.09520745 0  1.43542 0.151964 0  1.47333 0.0505805 0  0.7775300000000001 0.051153 0  0.785714 0 0  0.8115954999999999 0.1534955 0  0.8462259999999999 0.1977265 0  0.7734719999999999 0.1032895 0  0.7633405 0.154479 0  0.729275 0.0521365 0  1.52571 0.0505805 0  1.51905 0 0  1.489515 0.1529135 0  1.444945 0.2037165 0  1.531165 0.102042 0  1.54069 0.1537945 0  1.576885 0.0514615 0  1.9804 0.259735 0  1.982625 0.209001 0  1.820005 0.356224 0  1.870005 0.356224 0  1.85 0.41 0  1.78468 0.2610425 0  1.78135 0.203532 0  1.72289 0.370464 0  1.77289 0.370464 0  1.75 0.41 0  1.792895 0.316688 0  1.737565 0.2752825 0  1.62499 0.361919 0  1.67499 0.361919 0  1.65 0.41 0  1.69788 0.322383 0  1.689665 0.2667375 0  1.62618 0.2593945 0  1.665865 0.212294 0  0.6242105 0.3561835 0  0.6742105 0.3561835 0  0.6499999999999999 0.41 0  0.6192880000000001 0.254318 0  0.6763440000000001 0.252328 0  1.52272 0.359254 0  1.57272 0.359254 0  1.55 0.41 0  1.59771 0.311173 0  1.57391 0.2567295 0  1.52224 0.256587 0  1.55071 0.2048085 0  0.727843 0.358078 0  0.7778430000000001 0.358078 0  0.75 0.41 0  0.7020535 0.3042615 0  0.7299765 0.2542225 0  0.778575 0.2554205 0  0.7528655 0.203487 0  1.41334 0.3624045 0  1.46334 0.3624045 0  1.45 0.41 0  1.48606 0.3116585 0  1.46286 0.2597375 0  1.408765 0.258788 0  0.8352619999999999 0.354298 0  0.885262 0.354298 0  0.8500000000000001 0.41 0  0.813105 0.302376 0  0.8359939999999999 0.2516405 0  0.880756 0.244682 0  0.9346730000000001 0.3699335 0  0.984673 0.3699335 0  0.95 0.41 0  0.9199349999999999 0.3142315 0  0.676894 0.0521365 0  0.680952 0 0  0.714742 0.153281 0  0.6718235 0.1062115 0  0.6235005 0.054075 0  1.629265 0.0514615 0  1.62381 0 0  1.59236 0.153937 0  1.636375 0.1041235 0  1.646395 0.1551375 0  1.6833 0.052662 0  1.73568 0.052662 0  1.72857 0 0  1.70988 0.1624805 0  1.74293 0.105083 0  1.7624 0.1622395 0  1.7882 0.052421 0  1.84058 0.052421 0  1.83333 0 0  1.8144 0.1461345 0  1.838565 0.112164 0  1.883695 0.059743 0  1.124605 0.3624205 0  1.174605 0.3624205 0  1.15 0.41 0  1.314255 0.2318395 0  1.28296 0.2598515 0  1.35806 0.2395255 0  1.375975 0.2955465 0  1.92648 0.052889 0  1.938095 0 0  1.924465 0.112632 0  1.949455 0.165069 0  0.352254 0.3716295 0  0.402254 0.3716295 0  0.35 0.41 0  0.513557 0.352693 0  0.563557 0.352693 0  0.55 0.41 0  0.5877675 0.2988765 0  0.5586344999999999 0.2508275 0  0.538972 0.1990895 0  0.452254 0.3716295 0  0.45 0.41 0  0.465811 0.3143225 0  0.411566 0.287403 0  0.3853285 0.2518815 0  0.1199575 0.2145665 0  0.0890808 0.2285505 0  0.1043493 0.253071 0  0.2245195 0.3717915 0  0.25 0.41 0  0.291071 0.03723765 0  0.23869 0.03723765 0  0.261905 0 0  0.265876 0.2435355 0  0.2563345 0.2232905 0  0.2528425 0.245245 0  0.284498 0.229205 0  1.032465 0.11335505 0  0.9973375 0.12542355 0  0.9615494999999999 0.08744735000000001 0  0.9220055 0.218733 0  0.9693989999999999 0.2091035 0  0.9611845 0.2882825 0  0.9117735 0.272647 0  1.229265 0.371775 0  1.279265 0.371775 0  1.25 0.41 0  1.02634 0.375414 0  1.07634 0.375414 0  1.05 0.41 0  1.011013 0.3353475 0  2.11607 0.0336915 0  2.16845 0.0336915 0  2.14762 0 0  2.16845 0.0849415 0  2.2 0.05125 0  2.100315 0.07553335 0  0.5562765000000001 0.159403 0  0.570414 0.1103435 0  0.5050935 0.1522235 0  1.32105 0.3794645 0  1.37105 0.3794645 0  1.35 0.41 0  1.333685 0.3126065 0  1.38439 0.331869 0  0.9994065 0.2494755 0  1.007568 0.29106 0  1.300315 0.3412395 0  1.2919 0.304917 0  2.13122 0.109057 0  2.094635 0.11720735 0  0.2725725 0.2024955 0  0.259684 0.2107905 0  0.2482962819455563 0.2129409872202754 0  0.2877025 0.2101195 0  2.123505 0.202068 0  2.079565 0.1721865 0  1.02826 0.03966905 0  0.9758784999999999 0.03966905 0  0.9952384999999999 0 0  1.049235 0.2965405 0  1.100945 0.3278345 0  1.0975 0.283547 0  0.5711200000000001 0.054075 0  0.5761905 0 0  0.523104 0.0562685 0  1.24959 0.2884845 0  1.20387 0.3241955 0  1.19493 0.27913 0  0.238785 0.2774815 0  0.2321125 0.311528 0  0.226118 0.3344655 0  0.2015985 0.3726739999999999 0  1.144525 0.2527845 0  1.190245 0.2170735 0  1.092815 0.2214905 0  0.2091915 0.3124105 0  0.220093 0.266387 0  0.243692 0.2543955 0  0.2353553390593274 0.2353553390593274 0  0.478422 0.113732 0  0.4611175 0.1534185 0  1.919065 0.370252 0  1.969065 0.370252 0  1.95 0.41 0  1.983635 0.312807 0  2.01457 0.352555 0  1.88907 0.316476 0  1.934895 0.277432 0  1.182685 0.1517565 0  1.097935 0.16905 0  1.128715 0.04418525 0  1.076335 0.04418525 0  1.1 0 0  1.056975 0.08385429999999999 0  1.08054 0.11787125 0  1.122445 0.13954925 0  1.16529 0.10057775 0  0.304922 0.07847404999999999 0  0.328137 0.0412364 0  0.380518 0.0412364 0  0.366667 0 0  0.388217 0.09869990000000001 0  0.426747 0.0574635 0  0.31696 0.1071899 0  0.279894 0.10319115 0  0.2725225 0.134971 0  0.2604845 0.10625515 0  0.228413 0.120237 0  0.2143565 0.129569 0  0.2390565 0.147367 0  1.30701 0.04462695 0  1.30952 0 0  1.241335 0.0563925 0  0.2357845 0.08845715 0  1.188955 0.0563925 0  1.20476 0 0  0.2066185 0.0512195 0  0.173851 0.08507819999999999 0  0.0367363 0.2360275 0  0 0.25625 0  0.264445 0.1607225 0  0.248207 0.1565175 0  0.2353553390593274 0.1646446609406726 0  0.2838545 0.1576585 0  0.130694 0.182523 0  0.1273445 0.195023 0  0.1517037180544437 0.1870590127797247 0  0.127532 0.162357 0  0.153537 0.154834 0  0.0523445 0.197523 0  0
[...]
<PointData  Vectors="u"> 
<DataArray  type="Float64"  Name="u"  NumberOfComponents="3" format="ascii">0.0000000000000000e+00 8.0094249768189269e-16 0.0000000000000000e+00  0.0000000000000000e+00 0.0000000000000000e+00 0.0000000000000000e+00  0.0000000000000000e+00 0.0000000000000000e+00 0.0000000000000000e+00  -5.3997954631791090e-16 4.7841694953511367e-16 0.0000000000000000e+00  0.0000000000000000e+00 0.0000000000000000e+00 0.0000000000000000e+00  0.0000000000000000e+00 0.0000000000000000e+00 0.0000000000000000e+00  0.0000000000000000e+00 -5.6365729552933885e-16 0.0000000000000000e+00  0.0000000000000000e+00 -5.0919253656724025e-16 0.0000000000000000e+00  0.0000000000000000e+00 6.0043487040179732e-16 0.0000000000000000e+00  0.0000000000000000e+00 -9.5094639331530753e-16 0.0000000000000000e+00  0.0000000000000000e+00 0.0000000000000000e+00 0.0000000000000000e+00  0.0000000000000000e+00 -9.7093276352620852e-16 0.0000000000000000e+00  0.0000000000000000e+00 5.0666894859035250e-16 0.0000000000000000e+00  0.0000000000000000e+00 1.2661865129142894e-15 0.0000000000000000e+00  0.0000000000000000e+00 -2.9260242796395227e-15 0.0000000000000000e+00  0.0000000000000000e+00 -1.2025275988854832e-15 0.0000000000000000e+00  0.0000000000000000e+00 -4.1780476738222379e-16 0.0000000000000000e+00  0.0000000000000000e+00 0.0000000000000000e+00 0.0000000000000000e+00  0.0000000000000000e+00 0.0000000000000000e+00 0.0000000000000000e+00  0.0000000000000000e+00 0.0000000000000000e+00 0.0000000000000000e+00  -7.0694677539520025e-16 0.0000000000000000e+00 0.0000000000000000e+00  0.0000000000000000e+00 3.0765727638494398e-16 0.0000000000000000e+00  -7.3789034282879050e-16 0.0000000000000000e+00 0.0000000000000000e+00  3.7054207467195389e-16 0.0000000000000000e+00 0.0000000000000000e+00  4.0971430101282189e-16 0.0000000000000000e+00 0.0000000000000000e+00  0.0000000000000000e+00 8.3944288023352094e-16 0.0000000000000000e+00  0.0000000000000000e+00 1.9485497960605049e-15 0.0000000000000000e+00  0.0000000000000000e+00 0.0000000000000000e+00 0.0000000000000000e+00  1.1250000003588427e+00 3.0435999170733628e-10 0.0000000000000000e+00  1.5000000000001448e+00 4.9407741651988852e-10 0.0000000000000000e+00  1.1249999996413800e+00 3.0392308509124486e-10 0.0000000000000000e+00  0.0000000000000000e+00 0.0000000000000000e+00 0.0000000000000000e+00  0.0000000000000000e+00 -6.8113688985385566e-16 0.0000000000000000e+00  8.9471979150554785e-16 -5.4884293427053236e-16 0.0000000000000000e+00  0.0000000000000000e+00 0.0000000000000000e+00 0.0000000000000000e+00  0.0000000000000000e+00 0.0000000000000000e+00 0.0000000000000000e+00  0.0000000000000000e+00 0.0000000000000000e+00 0.0000000000000000e+00  0.0000000000000000e+00 0.0000000000000000e+00 0.0000000000000000e+00  0.0000000000000000e+00 0.0000000000000000e+00 0.0000000000000000e+00  0.0000000000000000e+00 0.0000000000000000e+00 0.0000000000000000e+00  0.0000000000000000e+00 7.8302026777518634e-16 0.0000000000000000e+00  0.0000000000000000e+00 0.0000000000000000e+00 0.0000000000000000e+00  0.0000000000000000e+00 4.6682064908746961e-16 0.0000000000000000e+00  0.0000000000000000e+00 0.0000000000000000e+00 0.0000000000000000e+00  0.0000000000000000e+00 0.0000000000000000e+00 0.0000000000000000e+00  0.0000000000000000e+00 3.0940110757056815e-16 0.0000000000000000e+00  0.0000000000000000e+00 0.0000000000000000e+00 0.0000000000000000e+00  0.0000000000000000e+00 0.0000000000000000e+00 0.0000000000000000e+00  0.0000000000000000e+00 0.0000000000000000e+00 0.0000000000000000e+00  0.0000000000000000e+00 3.5610843005738314e-16 0.0000000000000000e+00  0.0000000000000000e+00 3.1738127486363337e-16 0.0000000000000000e+00  0.0000000000000000e+00 0.0000000000000000e+00 0.0000000000000000e+00  1.1250000000000004e+00 0.0000000000000000e+00 0.0000000000000000e+00  1.4999999999999980e+00 0.0000000000000000e+00 0.0000000000000000e+00  1.1250000000000016e+00 0.0000000000000000e+00 0.0000000000000000e+00  0.0000000000000000e+00 0.0000000000000000e+00 0.0000000000000000e+00  1.0697740187498441e-15 8.0233041991735488e-16 0.0000000000000000e+00  -6.9984707757026488e-16 0.0000000000000000e+00 0.0000000000000000e+00  0.0000000000000000e+00 0.0000000000000000e+00 0.0000000000000000e+00  3.2585100737247460e-16 0.0000000000000000e+00 0.0000000000000000e+00  -1.7038960982735880e-15 -6.5734627269831401e-16 0.0000000000000000e+00  0.0000000000000000e+00 0.0000000000000000e+00 0.0000000000000000e+00  -6.6037685016124343e-16 0.0000000000000000e+00 0.0000000000000000e+00  1.2548610886680465e+00 -3.2686532832123144e-01 0.0000000000000000e+00  1.4202797554215314e+00 4.9572311048668639e-05 0.0000000000000000e+00  1.4473151209977253e+00 5.3869174745088276e-06 0.0000000000000000e+00  1.4599981046537041e+00 7.7327946420084162e-05 0.0000000000000000e+00  1.4889375280387427e+00 1.9681970041538756e-06 0.0000000000000000e+00  1.4928171771329468e+00 9.7980433412750534e-05 0.0000000000000000e+00  1.4998220107654512e+00 4.1434850721656095e-08 0.0000000000000000e+00  1.5000918740911282e+00 -8.3271025634231536e-05 0.0000000000000000e+00  1.4999960166098676e+00 -2.9879138644754615e-07 0.0000000000000000e+00  1.4999141003024563e+00 -1.1700764866926672e-03 0.0000000000000000e+00  1.4999999142679519e+00 -1.7360078170910241e-07 0.0000000000000000e+00  1.4591330867513155e+00 -8.1721634769959788e-03 0.0000000000000000e+00  1.4923530657242094e+00 -4.9504252610277258e-08 0.0000000000000000e+00  1.4889776195580953e+00 -1.1732760433372272e-08 0.0000000000000000e+00  1.4953954493971562e+00 7.5835712720630263e-10 0.0000000000000000e+00  1.4284349053877496e+00 -4.2926488317028139e-01 0.0000000000000000e+00  1.7553483828441381e+00 -2.7566492044752106e-01 0.0000000000000000e+00  1.4163696358125730e+00 5.8972783673962965e-10 0.0000000000000000e+00  9.7468252404205091e-01 3.7006644187213328e-10 0.0000000000000000e+00  1.2752304593512993e+00 5.6410618959180514e-01 0.0000000000000000e+00  1.5559649028906213e+00 -2.9608993213802848e-01 0.0000000000000000e+00  1.0826470685785203e+00 2.9463821599232365e-01 0.0000000000000000e+00  8.2734575931086374e-01 -4.1537141477786382e-01 0.0000000000000000e+00  1.2183969287486713e+00 -2.3617561547263841e-02 0.0000000000000000e+00  1.1314107628492478e+00 -6.1006538648080322e-01 0.0000000000000000e+00  3.4052152072753372e-01 2.2155360881578018e-01 0.0000000000000000e+00  9.3398474652782915e-01 -1.3849665319208030e-08 0.0000000000000000e+00  1.1610548733942430e+00 -5.5635383799520804e-09 0.0000000000000000e+00  1.0771906651281187e+00 -5.6466816433254513e-08 0.0000000000000000e+00  1.1629157089070512e+00 -2.1453333445523742e-03 0.0000000000000000e+00  1.1175883381102703e+00 -1.4130264743004445e-07 0.0000000000000000e+00  1.1346724142696829e+00 -7.9186246616035492e-05 0.0000000000000000e+00  1.0696131958782846e+00 -1.4497952672990851e-07 0.0000000000000000e+00  1.1871709637296413e+00 9.7770768647586424e-05 0.0000000000000000e+00  1.1964831795549118e+00 4.2654055914525175e-06 0.0000000000000000e+00  1.3814888608524944e+00 4.1362441172651547e-05 0.0000000000000000e+00  9.4340109368260106e-01 4.0718448572353184e-05 0.0000000000000000e+00  1.3186291121400362e+00 8.3235031178714288e-07 0.0000000000000000e+00  1.2101792219885583e+00 5.4834729698130562e-10 0.0000000000000000e+00  1.2389894989884895e+00 -2.8903753195565071e-09 0.0000000000000000e+00  1.1419408023803048e+00 -1.1033963528009963e-08 0.0000000000000000e+00  1.0218142183385901e+00 1.1314031576886772e-07 0.0000000000000000e+00  1.1453787197939378e+00 -4.2418677811924633e-08 0.0000000000000000e+00  1.0725889172169669e+00 4.6566069744410694e-05 0.0000000000000000e+00  1.1280885837453052e+00 -1.1204670339218169e-07 0.0000000000000000e+00  1.1638602568638461e+00 -6.5459500028999459e-04 0.0000000000000000e+00  1.1151380938194395e+00 -1.8147031944399219e-07 0.0000000000000000e+00  1.1377612541938349e+00 -4.6583288936616389e-04 0.0000000000000000e+00  1.1237245203280866e+00 -3.5330539418057824e-05 0.0000000000000000e+00  1.1486018353047447e+00 1.6376147917383714e-10 0.0000000000000000e+00  1.3678963814693550e+00 -1.0937065132243211e-01 0.0000000000000000e+00  6.0199260429878254e-01 5.4895485651048725e-01 0.0000000000000000e+00  1.0693518071985175e+00 9.1144989417740331e-06 0.0000000000000000e+00  1.0377245334400331e+00 -1.1484272334160496e-01 0.0000000000000000e+00  1.4973439013881249e+00 -6.1108381121332579e-03 0.0000000000000000e+00  1.3948795592437582e+00 5.6238617601177184e-10 0.0000000000000000e+00  1.4866219058220158e+00 -1.2503318582533572e-09 0.0000000000000000e+00  6.3094907572798464e-01 -1.0445817946353364e-01 0.0000000000000000e+00  1.5428103027517577e+00 3.3022140429631230e-01 0.0000000000000000e+00  3.1529490373195890e-01 -2.9256396445310107e-01 0.0000000000000000e+00  1.2047626323209040e+00 7.8242611836255110e-02 0.0000000000000000e+00  9.3642690388160676e-01 2.5974359324314253e-05 0.0000000000000000e+00  1.4378958021033905e+00 9.6685020480323871e-05 0.0000000000000000e+00  9.1016795516749627e-01 1.2715700674031716e-06 0.0000000000000000e+00  8.4145832193314496e-01 1.5626612413218098e-05 0.0000000000000000e+00  8.2402955358137409e-01 1.9794804281157825e-10 0.0000000000000000e+00  1.1912438621489729e+00 1.0475237352397703e-02 0.0000000000000000e+00  7.6059923147571362e-01 8.1309890204848290e-08 0.0000000000000000e+00  1.7044495692759967e+00 -1.9358820864320339e-01 0.0000000000000000e+00  1.8946961291912718e+00 -1.1330589144593438e-02 0.0000000000000000e+00  1.4927321765027419e+00 2.1578769414235357e-05 0.0000000000000000e+00  9.3778986124001207e-01 -9.9426966534324664e-11 0.0000000000000000e+00  1.0145057691587540e+00 1.3253405581480235e-05 0.0000000000000000e+00  1.1809589274855408e+00 2.5566689230184769e-01 0.0000000000000000e+00  1.0044484904043669e+00 5.5274308189702981e-01 0.0000000000000000e+00  1.1463112539610369e+00 5.4745539387855513e-01 0.0000000000000000e+00  1.7655747262625827e+00 3.6714182508861562e-02 0.0000000000000000e+00  1.0985276762264875e+00 -5.7250883012312559e-01 0.0000000000000000e+00  1.7766493616965240e+00 4.6627594579146986e-01 0.0000000000000000e+00  1.1101225728140658e+00 1.1008650387396711e-01 0.0000000000000000e+00  1.2391952188341935e+00 -4.2160146941108129e-01 0.0000000000000000e+00  1.3646335254295003e+00 2.3103755762934428e-02 0.0000000000000000e+00  7.3381737976865036e-01 1.6868664967387807e-02 0.0000000000000000e+00  7.7348803404950217e-01 1.9707392415296398e-10 0.0000000000000000e+00  1.2967966769060153e+00 4.1848345558648669e-10 0.0000000000000000e+00  1.4790924088860935e+00 5.2976065167692293e-10 0.0000000000000000e+00  1.4062499997441384e+00 4.4209976536417308e-10 0.0000000000000000e+00  5.4983050945776024e-01 1.1455598966701369e-10 0.0000000000000000e+00  5.4983050972871228e-01 1.3523280202119395e-10 0.0000000000000000e+00  0.0000000000000000e+00 0.0000000000000000e+00 0.0000000000000000e+00  1.1566035591123349e+00 -4.9528834247339948e-02 0.0000000000000000e+00  9.3267618804175945e-01 -1.0776743776498560e-01 0.0000000000000000e+00  0.0000000000000000e+00 -1.5811713508102207e-15 0.0000000000000000e+00  7.4038534945621703e-01 1.1424629576751623e-01 0.0000000000000000e+00  5.2793181167935488e-01 5.4631216425760597e-02 0.0000000000000000e+00  0.0000000000000000e+00 2.7445138773144853e-15 0.0000000000000000e+00  1.0639881648341254e+00 2.3038807634535263e-01 0.0000000000000000e+00  6.5625000000000044e-01 0.0000000000000000e+00 0.0000000000000000e+00  1.6005299525441432e+00 -4.1479321112202372e-01 0.0000000000000000e+00  1.0904681049863905e+00 -1.0842370625431604e-01 0.0000000000000000e+00  1.1407617038953370e+00 -1.7076727976129735e-01 0.0000000000000000e+00  1.3080044374451461e+00 4.9473709301255908e-01 0.0000000000000000e+00  1.2801123346227830e+00 3.5771255868081248e-01 0.0000000000000000e+00  1.2507235961020293e+00 -5.3227444202876772e-01 0.0000000000000000e+00  1.1057183276634885e+00 -3.9273708223551668e-01 0.0000000000000000e+00  1.3244327145082488e+00 -4.1801422168592750e-01 0.0000000000000000e+00  1.6769740441613901e+00 -4.9625447151758917e-01 0.0000000000000000e+00  1.4143286083895237e+00 -5.7574457924634936e-01 0.0000000000000000e+00  1.3287947176641055e+00 6.2924679919857819e-10 0.0000000000000000e+00  1.4446590342075185e+00 7.1723517179969199e-10 0.0000000000000000e+00  1.4877530020800176e+00 7.6346653440230092e-10 0.0000000000000000e+00  1.0659981413479860e+00 4.2845266590727882e-10 0.0000000000000000e+00  6.7414314272500586e-01 1.5232614143944804e-10 0.0000000000000000e+00  1.3908869454946733e+00 5.1319789903211276e-10 0.0000000000000000e+00  1.3429285860588862e+00 6.6476864517585822e-10 0.0000000000000000e+00  1.3536642872808047e+00 -6.1407760682020959e-02 0.0000000000000000e+00  1.4321105371422023e+00 -3.9314172849903385e-02 0.0000000000000000e+00  1.4360366882230742e+00 -3.0529460943497937e-02 0.0000000000000000e+00  1.4737198898879367e+00 5.2229827430324304e-10 0.0000000000000000e+00  1.2806973291704535e+00 4.0627090406109234e-10 0.0000000000000000e+00  1.4062500002562484e+00 4.4222840625839954e-10 0.0000000000000000e+00  1.4609486760319184e+00 -2.5533856313180269e-09 0.0000000000000000e+00  1.4999715047451205e+00 -4.8518602071590310e-09 0.0000000000000000e+00  1.4051731435051122e+00 -6.6297914223010922e-09 0.0000000000000000e+00  1.3782500699190681e+00 -3.5394133852695169e-09 0.0000000000000000e+00  1.4430694640382400e+00 -1.0271688851231288e-08 0.0000000000000000e+00  1.4160888453007372e+00 -2.1260283746932208e-03 0.0000000000000000e+00  1.4997533400213443e+00 -2.8491832238972965e-03 0.0000000000000000e+00  1.4110191701318726e+00 -1.5924470231901339e-03 0.0000000000000000e+00  1.2401476421671642e+00 -2.4621321203882790e-01 0.0000000000000000e+00  1.2786432155710556e+00 -2.3888765048854646e-01 0.0000000000000000e+00  4.0771099482154366e-01 3.6467214630656086e-01 0.0000000000000000e+00  3.1659289708105082e-01 3.7836551105514393e-01 0.0000000000000000e+00  0.0000000000000000e+00 0.0000000000000000e+00 0.0000000000000000e+00  1.7808422466872018e-01 2.3180221413392368e-01 0.0000000000000000e+00  1.1264772733155975e-01 9.3868853869587099e-02 0.0000000000000000e+00  0.0000000000000000e+00 0.0000000000000000e+00 0.0000000000000000e+00  9.0799165166457452e-01 -5.6485753729053578e-01 0.0000000000000000e+00  1.4259431919473462e+00 5.8431565062757439e-05 0.0000000000000000e+00  1.4990427731223439e+00 5.2256960205630748e-05 0.0000000000000000e+00  1.4983066442796977e+00 6.9194558177690228e-05 0.0000000000000000e+00  1.3923825437983812e+00 3.3652837033124748e-06 0.0000000000000000e+00  1.4741770134386383e+00 6.3340091794344375e-06 0.0000000000000000e+00  1.4961340486418973e+00 3.5520628030570999e-06 0.0000000000000000e+00  1.1140887998555922e+00 1.1499397044998018e-06 0.0000000000000000e+00  1.3413219232521025e+00 7.8936543586925760e-07 0.0000000000000000e+00  6.1779659102168383e-01 1.5834947041938063e-05 0.0000000000000000e+00  6.1782350198354197e-01 1.2038128650287623e-05 0.0000000000000000e+00  0.0000000000000000e+00 0.0000000000000000e+00 0.0000000000000000e+00  1.3636139045839317e+00 7.5393678477455670e-05 0.0000000000000000e+00  1.3177737619608023e+00 7.0731924975021691e-05 0.0000000000000000e+00  1.4797173857348982e+00 9.7117065831861147e-05 0.0000000000000000e+00  1.0985749139181016e+00 2.9667648002337284e-05 0.0000000000000000e+00  1.3781287780075200e+00 3.7308128015541163e-05 0.0000000000000000e+00  6.5530362527050423e-01 -5.0788939777153992e-06 0.0000000000000000e+00  5.8199191154432739e-01 -5.0308453414412992e-08 0.0000000000000000e+00  5.8199187065295332e-01 4.1810890514632078e-09 0.0000000000000000e+00  0.0000000000000000e+00 0.0000000000000000e+00 0.0000000000000000e+00  1.3757962772493262e+00 1.5567737850315564e-07 0.0000000000000000e+00  1.4964882575882736e+00 6.8391310229294033e-07 0.0000000000000000e+00  1.0697412092725342e+00 -1.2939881695728900e-07 0.0000000000000000e+00  1.3996017316591960e+00 -2.1791359666489338e-07 0.0000000000000000e+00  6.4888551807619732e-01 -6.7376827866060553e-08 0.0000000000000000e+00  6.5525038956511672e-01 -5.7556987966176245e-05 0.0000000000000000e+00  0.0000000000000000e+00 -7.6692108176127796e-16 0.0000000000000000e+00  1.4054535164419912e+00 -7.5176968757653808e-05 0.0000000000000000e+00  1.4981743787923598e+00 5.2500089388387895e-05 0.0000000000000000e+00  1.1308400197086648e+00 -1.9157918711731382e-04 0.0000000000000000e+00  1.4090178980280099e+00 -3.4673481055260715e-04 0.0000000000000000e+00  6.6585288799329212e-01 -1.5124567234684266e-04 0.0000000000000000e+00  6.4888562579464903e-01 -5.4164945124310027e-08 0.0000000000000000e+00  0.0000000000000000e+00 0.0000000000000000e+00 0.0000000000000000e+00  1.4031644488335921e+00 -2.6946589607939762e-07 0.0000000000000000e+00  1.4999411938739482e+00 -2.6040673338828254e-07 0.0000000000000000e+00  1.1216410523343701e+00 -1.5385212493383479e-07 0.0000000000000000e+00  1.4064125898837283e+00 -2.2814478913445334e-07 0.0000000000000000e+00  6.5856961837976979e-01 -3.9005655335512455e-08 0.0000000000000000e+00  1.3930664991878108e+00 2.8022480191446286e-10 0.0000000000000000e+00  1.4994286257221305e+00 2.8288335547873627e-10 0.0000000000000000e+00  6.8374664678148067e-01 -2.2281091659954390e-09 0.0000000000000000e+00  6.8374664412135966e-01 -8.0767968458899659e-10 0.0000000000000000e+00  0.0000000000000000e+00 0.0000000000000000e+00 0.0000000000000000e+00  1.3878966715713672e+00 -2.0561145324221664e-08 0.0000000000000000e+00  1.4999230804263761e+00 -2.5936765793286024e-08 0.0000000000000000e+00  5.2278400208668385e-01 -5.2948703875186747e-09 0.0000000000000000e+00  5.2278399278170151e-01 -2.6333185328476996e-09 0.0000000000000000e+00  0.0000000000000000e+00 0.0000000000000000e+00 0.0000000000000000e+00  1.0547575567518108e+00 -9.4627146957689829e-09 0.0000000000000000e+00  1.3236896162372194e+00 -3.3963622410980734e-08 0.0000000000000000e+00  6.2110991354528722e-01 -2.2579539857611075e-08 0.0000000000000000e+00  6.2110988005378853e-01 -1.3466567238655973e-08 0.0000000000000000e+00  0.0000000000000000e+00 0.0000000000000000e+00 0.0000000000000000e+00  1.0081938986579948e+00 -2.9475406826505466e-08 0.0000000000000000e+00  1.3639553392868300e+00 -6.3006362356930596e-08 0.0000000000000000e+00  1.3943928711238314e+00 -1.2238930946617031e-07 0.0000000000000000e+00  1.4981010497724918e+00 -9.9092808375820609e-08 0.0000000000000000e+00  6.8551427469104564e-01 -1.1244046123775903e-03 0.0000000000000000e+00  6.8431388476501565e-01 -3.1838493072087597e-04 0.0000000000000000e+00  0.0000000000000000e+00 0.0000000000000000e+00 0.0000000000000000e+00  1.4141449369705461e+00 -5.1955317671651810e-03 0.0000000000000000e+00  1.4206137263987113e+00 -1.8365658662200283e-03 0.0000000000000000e+00  6.5070943757304678e-01 -5.5234806743386775e-08 0.0000000000000000e+00  6.5070935679150399e-01 -3.9287095240594647e-08 0.0000000000000000e+00  0.0000000000000000e+00 0.0000000000000000e+00 0.0000000000000000e+00  1.0976429886148060e+00 -9.4026530741316924e-08 0.0000000000000000e+00  1.4044876346314286e+00 -1.8656804889606352e-07 0.0000000000000000e+00  1.4050131869518125e+00 -2.4824726856856420e-07 0.0000000000000000e+00  1.4999986904235669e+00 -2.4522341615515433e-07 0.0000000000000000e+00  6.6338354230985164e-01 -2.9447035307623000e-05 0.0000000000000000e+00  6.6335353203237157e-01 3.3358386773570055e-05 0.0000000000000000e+00  0.0000000000000000e+00 0.0000000000000000e+00 0.0000000000000000e+00  1.1485921510390238e+00 -5.9700225030497891e-04 0.0000000000000000e+00  1.4137374616311991e+00 -5.7132797814952736e-04 0.0000000000000000e+00  1.4092863970615410e+00 -1.0954880315227734e-04 0.0000000000000000e+00  1.5000803681311470e+00 -4.4201172561250142e-04 0.0000000000000000e+00  6.1566336389474507e-01 -5.5652764919176814e-08 0.0000000000000000e+00  6.1566326232707380e-01 -6.2756492839131448e-08 0.0000000000000000e+00  0.0000000000000000e+00 0.0000000000000000e+00 0.0000000000000000e+00  1.0939550464838892e+00 -1.7424268192516021e-07 0.0000000000000000e+00  1.3930569827527770e+00 -2.62