<?xml version="1.0"?>
<VTKFile type="UnstructuredGrid"  version="0.1"  >
<UnstructuredGrid>
<Piece  NumberOfPoints="147" NumberOfCells="231">
<Points>
<DataArray  type="Float64"  NumberOfComponents="3"  format="ascii">0 0 0  2.2 0 0  2.2 0.41 0  0 0.41 0  0.15 0.2 0  0.25 0.2 0  0.2 0.15 0  0.2 0.25 0  0.104762 0 0  0.209524 0 0  0.314286 0 0  0.419048 0 0  0.52381 0 0  0.628571 0 0  0.733333 0 0  0.838095 0 0  0.9428569999999999 0 0  1.04762 0 0  1.15238 0 0  1.25714 0 0  1.3619 0 0  1.46667 0 0  1.57143 0 0  1.67619 0 0  1.78095 0 0  1.88571 0 0  1.99048 0 0  2.09524 0 0  2.2 0.1025 0  2.2 0.205 0  2.2 0.3075 0  2.1 0.41 0  2 0.41 0  1.9 0.41 0  1.8 0.41 0  1.7 0.41 0  1.6 0.41 0  1.5 0.41 0  1.4 0.41 0  1.3 0.41 0  1.2 0.41 0  1.1 0.41 0  1 0.41 0  0.9 0.41 0  0.8 0.41 0  0.7 0.41 0  0.6 0.41 0  0.5 0.41 0  0.4 0.41 0  0.3 0.41 0  0.2 0.41 0  0.1 0.41 0  0 0.3075 0  0 0.205 0  0 0.1025 0  0.156699 0.225 0  0.175 0.243301 0  0.225 0.243301 0  0.243301 0.225 0  0.243301 0.175 0  0.225 0.156699 0  0.175 0.156699 0  0.156699 0.175 0  0.352033 0.262216 0  1.04579 0.252253 0  1.24065 0.243419 0  0.985775 0.171509 0  1.30324 0.187395 0  0.890988 0.190768 0  1.39085 0.202767 0  0.801464 0.204685 0  1.49904 0.204666 0  0.704267 0.202289 0  1.60238 0.204951 0  0.487789 0.19191 0  1.72935 0.219637 0  1.83335 0.187427 0  2.03359 0.193642 0  0.314663 0.307348 0  0.249039 0.333583 0  2.12147 0.253405 0  2.06373 0.0836837 0  0.0734726 0.267055 0  0.143989 0.0677174 0  0.0613613 0.33781 0  0.299628 0.236829 0  0.527114 0.295386 0  0.262384 0.26549 0  0.275777 0.18341 0  1.74578 0.330928 0  1.84001 0.302448 0  1.64998 0.313838 0  0.648421 0.302367 0  1.54544 0.308508 0  0.755686 0.306156 0  1.42668 0.314809 0  0.870524 0.298596 0  1.22553 0.112785 0  1.05603 0.147372 0  0.969346 0.329867 0  1.32527 0.276284 0  2.02914 0.29511 0  1.88168 0.119486 0  1.79545 0.104842 0  1.35688 0.0892539 0  1.69041 0.105324 0  0.914199 0.09555660000000001 0  1.58234 0.102923 0  0.61843 0.10815 0  1.47999 0.101161 0  0.725217 0.104273 0  0.821727 0.102306 0  1.96725 0.105778 0  0.418624 0.241547 0  0.135226 0.239087 0  1.14921 0.314841 0  0.404508 0.333259 0  0.590155 0.206269 0  2.12554 0.150731 0  1.93166 0.22436 0  0.104689 0.190046 0  0.267856 0.07447529999999999 0  0.269368 0.221581 0  0.434446 0.114927 0  1.0089 0.07933809999999999 0  0.953023 0.246698 0  1.25853 0.33355 0  1.05268 0.340828 0  2.1369 0.067383 0  0.522398 0.112537 0  1.3421 0.348929 0  0.215186 0.289473 0  0.203197 0.335348 0  1.13984 0.190728 0  1.93813 0.330504 0  1.10505 0.0883705 0  0.341988 0.0824728 0  0.253113 0.138035 0  0.291932 0.131907 0  0.203713 0.102439 0  0.150375 0.134668 0  0.151494 0.309119 0  0.354384 0.17896 0  0.06853670000000001 0.100776 0  0.424128 0.180088 0  0.474925 0.0568661 0  2.10843 0.347669 0  </DataArray>
</Points>
<Cells>
<DataArray  type="UInt32"  Name="connectivity"  format="ascii">29 30 80  26 27 81  8 9 83  3 51 84  3 52 84  49 78 79  52 82 84  63 78 85  78 79 87  77 80 101  26 81 112  77 81 112  74 86 113  28 29 118  76 102 119  76 90 119  72 108 117  63 78 116  55 56 114  5 59 88  78 85 87  64 66 98  65 67 97  67 97 104  15 16 106  66 68 106  68 106 111  15 106 111  20 21 104  67 69 104  69 104 109  21 104 109  14 15 111  68 70 111  70 110 111  14 110 111  21 22 109  69 71 109  71 107 109  22 107 109  77 101 119  33 34 90  75 76 90  34 35 89  34 89 90  75 89 90  35 36 91  35 89 91  73 75 91  75 89 91  45 46 92  72 92 117  36 37 93  36 91 93  71 73 93  73 91 93  44 45 94  45 92 94  70 72 94  72 92 94  37 38 95  37 93 95  69 71 95  71 93 95  43 44 96  44 94 96  68 70 96  70 94 96  42 43 99  43 96 99  13 14 110  70 72 110  72 108 110  13 108 110  22 23 107  71 73 107  73 105 107  23 105 107  23 24 105  73 75 105  75 103 105  24 103 105  24 25 103  75 76 103  76 102 103  25 102 103  40 41 115  65 67 100  67 69 100  69 95 100  25 26 112  25 102 112  77 112 119  102 112 119  48 49 116  49 78 116  46 47 86  46 86 92  74 86 117  86 92 117  47 48 116  47 86 116  63 113 116  86 113 116  82 114 120  49 50 79  9 10 121  58 87 122  85 87 122  66 98 124  66 106 124  66 68 125  96 99 125  68 96 125  39 40 126  41 42 127  42 99 127  1 27 128  1 28 128  27 81 128  108 117 129  74 117 129  38 39 130  95 100 130  38 95 130  64 66 125  64 99 125  39 126 130  100 126 130  28 118 128  81 118 128  5 88 122  5 58 122  85 88 122  29 80 118  77 81 118  77 80 118  16 17 124  16 106 124  64 99 127  41 115 127  64 115 127  12 13 108  12 108 129  65 100 126  65 115 126  40 115 126  79 87 131  50 79 132  65 115 133  64 115 133  79 131 132  57 87 131  57 58 87  74 123 129  32 33 134  32 101 134  33 90 134  90 119 134  101 119 134  65 97 133  64 98 133  17 18 135  17 124 135  98 124 135  97 133 135  98 133 135  10 121 136  10 11 136  11 123 136  121 136 138  121 137 138  60 137 139  19 20 104  19 97 104  121 137 139  18 19 97  18 97 135  9 121 139  9 83 139  52 53 82  59 88 137  59 60 137  88 137 138  4 62 120  62 120 140  53 82 120  82 114 141  85 88 142  88 138 142  0 8 143  0 54 143  74 113 144  74 123 144  82 84 141  63 85 142  8 83 143  53 54 143  83 140 143  120 140 143  53 120 143  61 62 140  136 138 142  63 113 142  113 142 144  123 136 142  123 142 144  50 51 141  51 84 141  50 132 141  4 55 114  4 114 120  11 12 145  123 129 145  11 123 145  12 129 145  6 60 139  131 132 141  6 61 140  83 139 140  6 139 140  2 30 146  2 31 146  31 32 146  80 101 146  30 80 146  32 101 146  7 57 131  56 114 141  7 56 141  7 131 141  </DataArray>
<DataArray  type="UInt32"  Name="offsets"  format="ascii">3 6 9 12 15 18 21 24 27 30 33 36 39 42 45 48 51 54 57 60 63 66 69 72 75 78 81 84 87 90 93 96 99 102 105 108 111 114 117 120 123 126 129 132 135 138 141 144 147 150 153 156 159 162 165 168 171 174 177 180 183 186 189 192 195 198 201 204 207 210 213 216 219 222 225 228 231 234 237 240 243 246 249 252 255 258 261 264 267 270 273 276 279 282 285 288 291 294 297 300 303 306 309 312 315 318 321 324 327 330 333 336 339 342 345 348 351 354 357 360 363 366 369 372 375 378 381 384 387 390 393 396 399 402 405 408 411 414 417 420 423 426 429 432 435 438 441 444 447 450 453 456 459 462 465 468 471 474 477 480 483 486 489 492 495 498 501 504 507 510 513 516 519 522 525 528 531 534 537 540 543 546 549 552 555 558 561 564 567 570 573 576 579 582 585 588 591 594 597 600 603 606 609 612 615 618 621 624 627 630 633 636 639 642 645 648 651 654 657 660 663 666 669 672 675 678 681 684 687 690 693 </DataArray>
<DataArray  type="UInt8"  Name="types"  format="ascii">5 5 5 5 5 5 5 5 5 5 5 5 5 5 5 5 5 5 5 5 5 5 5 5 5 5 5 5 5 5 5 5 5 5 5 5 5 5 5 5 5 5 5 5 5 5 5 5 5 5 5 5 5 5 5 5 5 5 5 5 5 5 5 5 5 5 5 5 5 5 5 5 5 5 5 5 5 5 5 5 5 5 5 5 5 5 5 5 5 5 5 5 5 5 5 5 5 5 5 5 5 5 5 5 5 5 5 5 5 5 5 5 5 5 5 5 5 5 5 5 5 5 5 5 5 5 5 5 5 5 5 5 5 5 5 5 5 5 5 5 5 5 5 5 5 5 5 5 5 5 5 5 5 5 5 5 5 5 5 5 5 5 5 5 5 5 5 5 5 5 5 5 5 5 5 5 5 5 5 5 5 5 5 5 5 5 5 5 5 5 5 5 5 5 5 5 5 5 5 5 5 5 5 5 5 5 5 5 5 5 5 5 5 5 5 5 5 5 5 5 5 5 5 5 5 5 5 5 5 5 5 </DataArray>
</Cells>
<PointData  Vectors="u"> 
<DataArray  type="Float64"  Name="u"  NumberOfComponents="3" format="ascii">1.4245601164387139e-15 1.5957255847079738e-15 0.0000000000000000e+00  0.0000000000000000e+00 0.0000000000000000e+00 0.0000000000000000e+00  0.0000000000000000e+00 0.0000000000000000e+00 0.0000000000000000e+00  3.2149720063782787e-16 0.0000000000000000e+00 0.0000000000000000e+00  1.0784218878986802e-15 0.0000000000000000e+00 0.0000000000000000e+00  0.0000000000000000e+00 0.0000000000000000e+00 0.0000000000000000e+00  0.0000000000000000e+00 6.3138254049009577e-16 0.0000000000000000e+00  0.0000000000000000e+00 -5.3646622911840485e-16 0.0000000000000000e+00  0.0000000000000000e+00 -8.8467892062353884e-16 0.0000000000000000e+00  0.0000000000000000e+00 0.0000000000000000e+00 0.0000000000000000e+00  0.0000000000000000e+00 2.0402353508670586e-15 0.0000000000000000e+00  0.0000000000000000e+00 1.0143664533530876e-15 0.0000000000000000e+00  0.0000000000000000e+00 0.0000000000000000e+00 0.0000000000000000e+00  0.0000000000000000e+00 0.0000000000000000e+00 0.0000000000000000e+00  0.0000000000000000e+00 1.1178406729488689e-15 0.0000000000000000e+00  0.0000000000000000e+00 0.0000000000000000e+00 0.0000000000000000e+00  0.0000000000000000e+00 -1.1199140807482037e-15 0.0000000000000000e+00  0.0000000000000000e+00 0.0000000000000000e+00 0.0000000000000000e+00  0.0000000000000000e+00 0.0000000000000000e+00 0.0000000000000000e+00  0.0000000000000000e+00 -1.8299337760484287e-15 0.0000000000000000e+00  0.0000000000000000e+00 0.0000000000000000e+00 0.0000000000000000e+00  0.0000000000000000e+00 0.0000000000000000e+00 0.0000000000000000e+00  0.0000000000000000e+00 -4.3255873493794712e-16 0.0000000000000000e+00  0.0000000000000000e+00 0.0000000000000000e+00 0.0000000000000000e+00  0.0000000000000000e+00 -6.3895188323947695e-16 0.0000000000000000e+00  0.0000000000000000e+00 3.9013470806032123e-16 0.0000000000000000e+00  0.0000000000000000e+00 5.1381071469803413e-16 0.0000000000000000e+00  0.0000000000000000e+00 0.0000000000000000e+00 0.0000000000000000e+00  1.1250000009494470e+00 1.2158019799733199e-10 0.0000000000000000e+00  1.4999999999923685e+00 1.3992950580386469e-10 0.0000000000000000e+00  1.1249999990613517e+00 1.1825634404374865e-10 0.0000000000000000e+00  0.0000000000000000e+00 0.0000000000000000e+00 0.0000000000000000e+00  0.0000000000000000e+00 0.0000000000000000e+00 0.0000000000000000e+00  0.0000000000000000e+00 4.9432963986403958e-16 0.0000000000000000e+00  0.0000000000000000e+00 -3.0440392008402006e-16 0.0000000000000000e+00  0.0000000000000000e+00 0.0000000000000000e+00 0.0000000000000000e+00  0.0000000000000000e+00 0.0000000000000000e+00 0.0000000000000000e+00  0.0000000000000000e+00 0.0000000000000000e+00 0.0000000000000000e+00  0.0000000000000000e+00 0.0000000000000000e+00 0.0000000000000000e+00  0.0000000000000000e+00 7.7390168179835862e-16 0.0000000000000000e+00  0.0000000000000000e+00 0.0000000000000000e+00 0.0000000000000000e+00  0.0000000000000000e+00 -3.4571666834037972e-16 0.0000000000000000e+00  0.0000000000000000e+00 3.1094482476767553e-16 0.0000000000000000e+00  0.0000000000000000e+00 9.6877058585569188e-16 0.0000000000000000e+00  0.0000000000000000e+00 -3.3930675262467284e-16 0.0000000000000000e+00  0.0000000000000000e+00 0.0000000000000000e+00 0.0000000000000000e+00  0.0000000000000000e+00 -5.9022692666632114e-16 0.0000000000000000e+00  0.0000000000000000e+00 -1.0888339762457800e-15 0.0000000000000000e+00  0.0000000000000000e+00 0.0000000000000000e+00 0.0000000000000000e+00  0.0000000000000000e+00 0.0000000000000000e+00 0.0000000000000000e+00  0.0000000000000000e+00 2.7133402121893280e-15 0.0000000000000000e+00  0.0000000000000000e+00 -7.4711252641987564e-16 0.0000000000000000e+00  1.1249999999999982e+00 0.0000000000000000e+00 0.0000000000000000e+00  1.5000000000000011e+00 0.0000000000000000e+00 0.0000000000000000e+00  1.1250000000000000e+00 0.0000000000000000e+00 0.0000000000000000e+00  0.0000000000000000e+00 0.0000000000000000e+00 0.0000000000000000e+00  0.0000000000000000e+00 -9.9142793867146613e-16 0.0000000000000000e+00  -4.6332297396666544e-16 -4.4361512319156052e-16 0.0000000000000000e+00  0.0000000000000000e+00 0.0000000000000000e+00 0.0000000000000000e+00  0.0000000000000000e+00 0.0000000000000000e+00 0.0000000000000000e+00  0.0000000000000000e+00 1.2883722401950230e-15 0.0000000000000000e+00  0.0000000000000000e+00 0.0000000000000000e+00 0.0000000000000000e+00  0.0000000000000000e+00 0.0000000000000000e+00 0.0000000000000000e+00  1.2585229221771019e+00 -3.0361276990448566e-01 0.0000000000000000e+00  1.4202668487004424e+00 6.0293131559145170e-05 0.0000000000000000e+00  1.4473111735855246e+00 1.5768856743417125e-05 0.0000000000000000e+00  1.4600032556088298e+00 3.7578199240742345e-05 0.0000000000000000e+00  1.4889385047041110e+00 8.2671277752409449e-06 0.0000000000000000e+00  1.4928054680300364e+00 -1.8197693536966091e-04 0.0000000000000000e+00  1.4998220531915980e+00 2.4303019194301662e-06 0.0000000000000000e+00  1.4999165256603542e+00 -1.0972449872113795e-03 0.0000000000000000e+00  1.4999960274356836e+00 1.4348837755651657e-07 0.0000000000000000e+00  1.4958259006933396e+00 -3.6320955533380599e-03 0.0000000000000000e+00  1.4999999068683239e+00 -1.7239518560192918e-07 0.0000000000000000e+00  1.3607463838794016e+00 -1.2170349986427364e-02 0.0000000000000000e+00  1.4923530755244310e+00 -9.8748946102406676e-08 0.0000000000000000e+00  1.4889776155260324e+00 -3.6684619600194723e-08 0.0000000000000000e+00  1.4953954492658290e+00 -1.8430855196638481e-09 0.0000000000000000e+00  1.4787021699956826e+00 -4.0655684613689841e-01 0.0000000000000000e+00  1.7560134179631401e+00 -2.5940579673640313e-01 0.0000000000000000e+00  1.4163696356773934e+00 -1.5272749038542180e-11 0.0000000000000000e+00  9.7468252392718158e-01 -1.5088181353228871e-10 0.0000000000000000e+00  1.2746575142581700e+00 5.6752524157445272e-01 0.0000000000000000e+00  1.5554531182266609e+00 -2.9667941622066540e-01 0.0000000000000000e+00  1.0902741554122870e+00 2.8475281279488929e-01 0.0000000000000000e+00  8.0571241529491133e-01 -3.7759614239530753e-01 0.0000000000000000e+00  1.2508194551327194e+00 -4.0568675961442591e-02 0.0000000000000000e+00  1.1294402263359411e+00 -5.8499292642273681e-01 0.0000000000000000e+00  3.4086326818657464e-01 2.1317273840709583e-01 0.0000000000000000e+00  9.3398478722430667e-01 -3.2437651031876576e-08 0.0000000000000000e+00  1.1610548887317569e+00 -2.0006869539180318e-08 0.0000000000000000e+00  1.0771907448508098e+00 -8.4719158781402965e-08 0.0000000000000000e+00  1.1675555434606943e+00 -1.2022388994587255e-02 0.0000000000000000e+00  1.1175883931326531e+00 -7.3133277266914226e-08 0.0000000000000000e+00  1.1362411730054471e+00 -1.9659195710888815e-03 0.0000000000000000e+00  1.0696126277350213e+00 5.0830542789433790e-07 0.0000000000000000e+00  1.1872682021192940e+00 -2.1629386486374160e-04 0.0000000000000000e+00  1.1964921501516794e+00 1.1828828123588249e-05 0.0000000000000000e+00  1.3815099382345200e+00 4.7651137996206213e-05 0.0000000000000000e+00  9.4338016238567479e-01 3.7349254459503433e-05 0.0000000000000000e+00  1.3186265897933709e+00 4.6238990651287289e-06 0.0000000000000000e+00  1.2101792226847448e+00 -1.0728992052282478e-09 0.0000000000000000e+00  1.2389894898178702e+00 -1.3948027985733559e-08 0.0000000000000000e+00  1.1419407767543766e+00 -3.1229416748089713e-08 0.0000000000000000e+00  1.0218160521901378e+00 1.5742549970326263e-06 0.0000000000000000e+00  1.1453786598564739e+00 -7.6168937700710079e-08 0.0000000000000000e+00  1.0725664398736101e+00 -4.2680498577877990e-05 0.0000000000000000e+00  1.1280885015771882e+00 -9.3305100106286706e-08 0.0000000000000000e+00  1.1624153050821229e+00 5.8733315909704868e-03 0.0000000000000000e+00  1.1151382319432357e+00 1.4159882334811764e-07 0.0000000000000000e+00  1.1371354227656132e+00 -9.3971595791674241e-06 0.0000000000000000e+00  1.1233192647253740e+00 -2.5487322002739699e-04 0.0000000000000000e+00  1.1486018326820682e+00 -3.3047894336723803e-09 0.0000000000000000e+00  1.3513887148900641e+00 -1.0431315818511441e-01 0.0000000000000000e+00  5.9807618696222020e-01 5.3420676143262036e-01 0.0000000000000000e+00  1.0693333683290167e+00 2.0564101823258960e-05 0.0000000000000000e+00  1.0618179855616543e+00 -1.0380504352498224e-01 0.0000000000000000e+00  1.4800835657080422e+00 -1.1830263662596614e-02 0.0000000000000000e+00  1.3948795594092072e+00 5.0588696988423072e-11 0.0000000000000000e+00  1.4866219072967262e+00 -1.0865085827837032e-08 0.0000000000000000e+00  6.7607649698363725e-01 -1.0903414194746229e-01 0.0000000000000000e+00  1.5449278072840706e+00 3.2396885733826364e-01 0.0000000000000000e+00  3.0693481608896783e-01 -2.6365555888339592e-01 0.0000000000000000e+00  1.2203211110210144e+00 8.2103576285711022e-02 0.0000000000000000e+00  9.3645487668247873e-01 2.4655213574355484e-05 0.0000000000000000e+00  1.4379109459290778e+00 -9.8371967056583907e-08 0.0000000000000000e+00  9.1016160912899358e-01 4.6603923761521896e-06 0.0000000000000000e+00  8.4142607988554496e-01 1.9068877321112586e-05 0.0000000000000000e+00  8.2402955402690392e-01 5.2864175792658377e-11 0.0000000000000000e+00  1.2037029544730744e+00 2.1194670952554142e-02 0.0000000000000000e+00  7.6059741352585641e-01 1.0089521729665319e-06 0.0000000000000000e+00  1.6949272590239590e+00 -1.9410869179916082e-01 0.0000000000000000e+00  1.8957083474807424e+00 -4.7398320543269017e-03 0.0000000000000000e+00  1.4927367382904524e+00 3.9607644437283636e-05 0.0000000000000000e+00  9.3778986564456734e-01 -3.2046155106904225e-09 0.0000000000000000e+00  1.0145281256790204e+00 2.0600443407062809e-05 0.0000000000000000e+00  1.2086179552524343e+00 2.4231627689383159e-01 0.0000000000000000e+00  1.0025049813257250e+00 5.1636415918991829e-01 0.0000000000000000e+00  1.1623419899849594e+00 5.0676466269779996e-01 0.0000000000000000e+00  1.7660613235431843e+00 2.6647151721850549e-02 0.0000000000000000e+00  1.0872608412206495e+00 -5.4224842845676668e-01 0.0000000000000000e+00  1.7629023545472158e+00 4.5256576682797478e-01 0.0000000000000000e+00  1.0243250505624348e+00 1.2147169886601600e-01 0.0000000000000000e+00  1.2508374807516625e+00 -4.0755258832897773e-01 0.0000000000000000e+00  1.3070801675537922e+00 1.8749695579577733e-02 0.0000000000000000e+00  7.5506732851301639e-01 1.8005118654460858e-02 0.0000000000000000e+00  7.7348803373309194e-01 5.8489041964618150e-11 0.0000000000000000e+00  </DataArray> 
</PointData> 
</Piece>
</UnstructuredGrid>
</VTKFile>