<?xml version="1.0"?>
<VTKFile type="UnstructuredGrid"  version="0.1"  >
<UnstructuredGrid>
<Piece  NumberOfPoints="525" NumberOfCells="924">
<Points>
<DataArray  type="Float64"  NumberOfComponents="3"  format="ascii">0 0 0  2.2 0 0  2.2 0.41 0  0 0.41 0  0.15 0.2 0  0.25 0.2 0  0.2 0.15 0  0.2 0.25 0  0.104762 0 0  0.209524 0 0  0.314286 0 0  0.419048 0 0  0.52381 0 0  0.628571 0 0  0.733333 0 0  0.838095 0 0  0.9428569999999999 0 0  1.04762 0 0  1.15238 0 0  1.25714 0 0  1.3619 0 0  1.46667 0 0  1.57143 0 0  1.67619 0 0  1.78095 0 0  1.88571 0 0  1.99048 0 0  2.09524 0 0  2.2 0.1025 0  2.2 0.205 0  2.2 0.3075 0  2.1 0.41 0  2 0.41 0  1.9 0.41 0  1.8 0.41 0  1.7 0.41 0  1.6 0.41 0  1.5 0.41 0  1.4 0.41 0  1.3 0.41 0  1.2 0.41 0  1.1 0.41 0  1 0.41 0  0.9 0.41 0  0.8 0.41 0  0.7 0.41 0  0.6 0.41 0  0.5 0.41 0  0.4 0.41 0  0.3 0.41 0  0.2 0.41 0  0.1 0.41 0  0 0.3075 0  0 0.205 0  0 0.1025 0  0.1566987973585577 0.2250001169958213 0  0.1749998830041787 0.2433012026414423 0  0.2250001169958213 0.2433012026414423 0  0.2433012026414423 0.2250001169958213 0  0.2433012026414423 0.1749998830041787 0  0.2250001169958213 0.1566987973585577 0  0.1749998830041787 0.1566987973585577 0  0.1566987973585577 0.1749998830041787 0  0.352033 0.262216 0  1.04579 0.252253 0  1.24065 0.243419 0  0.985775 0.171509 0  1.30324 0.187395 0  0.890988 0.190768 0  1.39085 0.202767 0  0.801464 0.204685 0  1.49904 0.204666 0  0.704267 0.202289 0  1.60238 0.204951 0  0.487789 0.19191 0  1.72935 0.219637 0  1.83335 0.187427 0  2.03359 0.193642 0  0.314663 0.307348 0  0.249039 0.333583 0  2.12147 0.253405 0  2.06373 0.0836837 0  0.0734726 0.267055 0  0.143989 0.0677174 0  0.0613613 0.33781 0  0.299628 0.236829 0  0.527114 0.295386 0  0.262384 0.26549 0  0.275777 0.18341 0  1.74578 0.330928 0  1.84001 0.302448 0  1.64998 0.313838 0  0.648421 0.302367 0  1.54544 0.308508 0  0.755686 0.306156 0  1.42668 0.314809 0  0.870524 0.298596 0  1.22553 0.112785 0  1.05603 0.147372 0  0.969346 0.329867 0  1.32527 0.276284 0  2.02914 0.29511 0  1.88168 0.119486 0  1.79545 0.104842 0  1.35688 0.0892539 0  1.69041 0.105324 0  0.914199 0.09555660000000001 0  1.58234 0.102923 0  0.61843 0.10815 0  1.47999 0.101161 0  0.725217 0.104273 0  0.821727 0.102306 0  1.96725 0.105778 0  0.418624 0.241547 0  0.135226 0.239087 0  1.14921 0.314841 0  0.404508 0.333259 0  0.590155 0.206269 0  2.12554 0.150731 0  1.93166 0.22436 0  0.104689 0.190046 0  0.267856 0.07447529999999999 0  0.269368 0.221581 0  0.434446 0.114927 0  1.0089 0.07933809999999999 0  0.953023 0.246698 0  1.25853 0.33355 0  1.05268 0.340828 0  2.1369 0.067383 0  0.522398 0.112537 0  1.3421 0.348929 0  0.215186 0.289473 0  0.203197 0.335348 0  1.13984 0.190728 0  1.93813 0.330504 0  1.10505 0.0883705 0  0.341988 0.0824728 0  0.253113 0.138035 0  0.291932 0.131907 0  0.203713 0.102439 0  0.150375 0.134668 0  0.151494 0.309119 0  0.354384 0.17896 0  0.06853670000000001 0.100776 0  0.424128 0.180088 0  0.474925 0.0568661 0  2.10843 0.347669 0  2.160735 0.2804525 0  2.160735 0.2292025 0  2.2 0.25625 0  2.079485 0.04184185 0  2.027105 0.04184185 0  2.04286 0 0  0.1767565 0.0338587 0  0.1243755 0.0338587 0  0.157143 0 0  0.08068065000000001 0.373905 0  0.03068065 0.373905 0  0.05 0.41 0  0.03068065 0.322655 0  0 0.35875 0  0.281851 0.3204655 0  0.2745195 0.3717915 0  0.3073315 0.358674 0  0.06741695 0.3024325 0  0.0367363 0.2872775 0  0.3071455 0.2720885 0  0.3258305 0.2495225 0  0.333348 0.284782 0  0.2557115 0.2995365 0  0.2885235 0.286419 0  2.075305 0.2742575 0  2.031365 0.244376 0  2.07753 0.2235235 0  2.01549 0.09473085000000001 0  1.978865 0.052889 0  2.00042 0.14971 0  2.04866 0.13866285 0  0.472869 0.2684665 0  0.4532065 0.2167285 0  0.5074514999999999 0.243648 0  2.16277 0.1778655 0  2.16277 0.1266155 0  2.2 0.15375 0  1.90667 0.171923 0  1.882505 0.2058935 0  1.857515 0.1534565 0  1.885835 0.263404 0  1.83668 0.2449375 0  0.6042925 0.1572095 0  0.647211 0.204279 0  0.6613485 0.1552195 0  0.3595855 0.3203035 0  0.3782705 0.2977375 0  0.155113 0.241194 0  0.1459625 0.2320435 0  0.1646446609406726 0.2353553390593274 0  0.259539 0.179205 0  0.2628885 0.191705 0  0.2482962819455563 0.1870590127797247 0  0.281006 0.2511595 0  1.0209025 0.1594405 0  1.05091 0.1998125 0  1.0157825 0.211881 0  1.264385 0.15009 0  1.23309 0.178102 0  1.271945 0.215407 0  1.291205 0.10101945 0  1.33006 0.13832445 0  0.928528 0.0477783 0  0.876147 0.0477783 0  0.890476 0 0  0.9025935 0.1431623 0  0.9499869999999999 0.1335328 0  0.9383815 0.1811385 0  0.867963 0.0989313 0  0.8563575 0.146537 0  0.8299110000000001 0.051153 0  1.411775 0.04462695 0  1.35939 0.04462695 0  1.414285 0 0  1.373865 0.14601045 0  1.347045 0.195081 0  1.418435 0.09520745 0  1.43542 0.151964 0  1.47333 0.0505805 0  0.7775300000000001 0.051153 0  0.785714 0 0  0.8115954999999999 0.1534955 0  0.8462259999999999 0.1977265 0  0.7734719999999999 0.1032895 0  0.7633405 0.154479 0  0.729275 0.0521365 0  1.52571 0.0505805 0  1.51905 0 0  1.489515 0.1529135 0  1.444945 0.2037165 0  1.531165 0.102042 0  1.54069 0.1537945 0  1.576885 0.0514615 0  1.9804 0.259735 0  1.982625 0.209001 0  1.820005 0.356224 0  1.870005 0.356224 0  1.85 0.41 0  1.78468 0.2610425 0  1.78135 0.203532 0  1.72289 0.370464 0  1.77289 0.370464 0  1.75 0.41 0  1.792895 0.316688 0  1.737565 0.2752825 0  1.62499 0.361919 0  1.67499 0.361919 0  1.65 0.41 0  1.69788 0.322383 0  1.689665 0.2667375 0  1.62618 0.2593945 0  1.665865 0.212294 0  0.6242105 0.3561835 0  0.6742105 0.3561835 0  0.6499999999999999 0.41 0  0.6192880000000001 0.254318 0  0.6763440000000001 0.252328 0  1.52272 0.359254 0  1.57272 0.359254 0  1.55 0.41 0  1.59771 0.311173 0  1.57391 0.2567295 0  1.52224 0.256587 0  1.55071 0.2048085 0  0.727843 0.358078 0  0.7778430000000001 0.358078 0  0.75 0.41 0  0.7020535 0.3042615 0  0.7299765 0.2542225 0  0.778575 0.2554205 0  0.7528655 0.203487 0  1.41334 0.3624045 0  1.46334 0.3624045 0  1.45 0.41 0  1.48606 0.3116585 0  1.46286 0.2597375 0  1.408765 0.258788 0  0.8352619999999999 0.354298 0  0.885262 0.354298 0  0.8500000000000001 0.41 0  0.813105 0.302376 0  0.8359939999999999 0.2516405 0  0.880756 0.244682 0  0.9346730000000001 0.3699335 0  0.984673 0.3699335 0  0.95 0.41 0  0.9199349999999999 0.3142315 0  0.676894 0.0521365 0  0.680952 0 0  0.714742 0.153281 0  0.6718235 0.1062115 0  0.6235005 0.054075 0  1.629265 0.0514615 0  1.62381 0 0  1.59236 0.153937 0  1.636375 0.1041235 0  1.646395 0.1551375 0  1.6833 0.052662 0  1.73568 0.052662 0  1.72857 0 0  1.70988 0.1624805 0  1.74293 0.105083 0  1.7624 0.1622395 0  1.7882 0.052421 0  1.84058 0.052421 0  1.83333 0 0  1.8144 0.1461345 0  1.838565 0.112164 0  1.883695 0.059743 0  1.124605 0.3624205 0  1.174605 0.3624205 0  1.15 0.41 0  1.314255 0.2318395 0  1.28296 0.2598515 0  1.35806 0.2395255 0  1.375975 0.2955465 0  1.92648 0.052889 0  1.938095 0 0  1.924465 0.112632 0  1.949455 0.165069 0  0.352254 0.3716295 0  0.402254 0.3716295 0  0.35 0.41 0  0.513557 0.352693 0  0.563557 0.352693 0  0.55 0.41 0  0.5877675 0.2988765 0  0.5586344999999999 0.2508275 0  0.538972 0.1990895 0  0.452254 0.3716295 0  0.45 0.41 0  0.465811 0.3143225 0  0.411566 0.287403 0  0.3853285 0.2518815 0  0.1199575 0.2145665 0  0.0890808 0.2285505 0  0.1043493 0.253071 0  0.2245195 0.3717915 0  0.25 0.41 0  0.291071 0.03723765 0  0.23869 0.03723765 0  0.261905 0 0  0.265876 0.2435355 0  0.2563345 0.2232905 0  0.2528425 0.245245 0  0.284498 0.229205 0  1.032465 0.11335505 0  0.9973375 0.12542355 0  0.9615494999999999 0.08744735000000001 0  0.9220055 0.218733 0  0.9693989999999999 0.2091035 0  0.9611845 0.2882825 0  0.9117735 0.272647 0  1.229265 0.371775 0  1.279265 0.371775 0  1.25 0.41 0  1.02634 0.375414 0  1.07634 0.375414 0  1.05 0.41 0  1.011013 0.3353475 0  2.11607 0.0336915 0  2.16845 0.0336915 0  2.14762 0 0  2.16845 0.0849415 0  2.2 0.05125 0  2.100315 0.07553335 0  0.5562765000000001 0.159403 0  0.570414 0.1103435 0  0.5050935 0.1522235 0  1.32105 0.3794645 0  1.37105 0.3794645 0  1.35 0.41 0  1.333685 0.3126065 0  1.38439 0.331869 0  0.9994065 0.2494755 0  1.007568 0.29106 0  1.300315 0.3412395 0  1.2919 0.304917 0  2.13122 0.109057 0  2.094635 0.11720735 0  0.2725725 0.2024955 0  0.259684 0.2107905 0  0.2482962819455563 0.2129409872202754 0  0.2877025 0.2101195 0  2.123505 0.202068 0  2.079565 0.1721865 0  1.02826 0.03966905 0  0.9758784999999999 0.03966905 0  0.9952384999999999 0 0  1.049235 0.2965405 0  1.100945 0.3278345 0  1.0975 0.283547 0  0.5711200000000001 0.054075 0  0.5761905 0 0  0.523104 0.0562685 0  1.24959 0.2884845 0  1.20387 0.3241955 0  1.19493 0.27913 0  0.238785 0.2774815 0  0.2321125 0.311528 0  0.226118 0.3344655 0  0.2015985 0.3726739999999999 0  1.144525 0.2527845 0  1.190245 0.2170735 0  1.092815 0.2214905 0  0.2091915 0.3124105 0  0.220093 0.266387 0  0.243692 0.2543955 0  0.2353553390593274 0.2353553390593274 0  0.478422 0.113732 0  0.4611175 0.1534185 0  1.919065 0.370252 0  1.969065 0.370252 0  1.95 0.41 0  1.983635 0.312807 0  2.01457 0.352555 0  1.88907 0.316476 0  1.934895 0.277432 0  1.182685 0.1517565 0  1.097935 0.16905 0  1.128715 0.04418525 0  1.076335 0.04418525 0  1.1 0 0  1.056975 0.08385429999999999 0  1.08054 0.11787125 0  1.122445 0.13954925 0  1.16529 0.10057775 0  0.304922 0.07847404999999999 0  0.328137 0.0412364 0  0.380518 0.0412364 0  0.366667 0 0  0.388217 0.09869990000000001 0  0.426747 0.0574635 0  0.31696 0.1071899 0  0.279894 0.10319115 0  0.2725225 0.134971 0  0.2604845 0.10625515 0  0.228413 0.120237 0  0.2143565 0.129569 0  0.2390565 0.147367 0  1.30701 0.04462695 0  1.30952 0 0  1.241335 0.0563925 0  0.2357845 0.08845715 0  1.188955 0.0563925 0  1.20476 0 0  0.2066185 0.0512195 0  0.173851 0.08507819999999999 0  0.0367363 0.2360275 0  0 0.25625 0  0.264445 0.1607225 0  0.248207 0.1565175 0  0.2353553390593274 0.1646446609406726 0  0.2838545 0.1576585 0  0.130694 0.182523 0  0.1273445 0.195023 0  0.1517037180544437 0.1870590127797247 0  0.127532 0.162357 0  0.153537 0.154834 0  0.0523445 0.197523 0  0
[...]
<PointData  Vectors="u"> 
<DataArray  type="Float64"  Name="u"  NumberOfComponents="3" format="ascii">0.0000000000000000e+00 1.6953666981231610e-15 0.0000000000000000e+00  0.0000000000000000e+00 0.0000000000000000e+00 0.0000000000000000e+00  0.0000000000000000e+00 0.0000000000000000e+00 0.0000000000000000e+00  0.0000000000000000e+00 -4.1271424447076695e-16 0.0000000000000000e+00  0.0000000000000000e+00 0.0000000000000000e+00 0.0000000000000000e+00  0.0000000000000000e+00 0.0000000000000000e+00 0.0000000000000000e+00  0.0000000000000000e+00 0.0000000000000000e+00 0.0000000000000000e+00  0.0000000000000000e+00 0.0000000000000000e+00 0.0000000000000000e+00  0.0000000000000000e+00 -5.1601017238999852e-16 0.0000000000000000e+00  0.0000000000000000e+00 -3.7341928733744365e-15 0.0000000000000000e+00  0.0000000000000000e+00 1.0364793888512664e-15 0.0000000000000000e+00  0.0000000000000000e+00 -4.8909163724490233e-16 0.0000000000000000e+00  0.0000000000000000e+00 0.0000000000000000e+00 0.0000000000000000e+00  0.0000000000000000e+00 0.0000000000000000e+00 0.0000000000000000e+00  0.0000000000000000e+00 0.0000000000000000e+00 0.0000000000000000e+00  0.0000000000000000e+00 5.3941125082388741e-16 0.0000000000000000e+00  0.0000000000000000e+00 -1.3978572281878489e-15 0.0000000000000000e+00  0.0000000000000000e+00 0.0000000000000000e+00 0.0000000000000000e+00  0.0000000000000000e+00 0.0000000000000000e+00 0.0000000000000000e+00  0.0000000000000000e+00 3.3428196678059546e-16 0.0000000000000000e+00  0.0000000000000000e+00 0.0000000000000000e+00 0.0000000000000000e+00  0.0000000000000000e+00 0.0000000000000000e+00 0.0000000000000000e+00  0.0000000000000000e+00 0.0000000000000000e+00 0.0000000000000000e+00  0.0000000000000000e+00 0.0000000000000000e+00 0.0000000000000000e+00  0.0000000000000000e+00 0.0000000000000000e+00 0.0000000000000000e+00  0.0000000000000000e+00 -9.5652951402726713e-16 0.0000000000000000e+00  0.0000000000000000e+00 -4.7449292137686206e-16 0.0000000000000000e+00  0.0000000000000000e+00 0.0000000000000000e+00 0.0000000000000000e+00  1.1250000003584106e+00 3.0458533149545570e-10 0.0000000000000000e+00  1.5000000000001534e+00 4.9447519463704435e-10 0.0000000000000000e+00  1.1249999996418178e+00 3.0414768827566553e-10 0.0000000000000000e+00  0.0000000000000000e+00 0.0000000000000000e+00 0.0000000000000000e+00  0.0000000000000000e+00 0.0000000000000000e+00 0.0000000000000000e+00  0.0000000000000000e+00 -3.6737840525153836e-16 0.0000000000000000e+00  0.0000000000000000e+00 0.0000000000000000e+00 0.0000000000000000e+00  0.0000000000000000e+00 0.0000000000000000e+00 0.0000000000000000e+00  0.0000000000000000e+00 0.0000000000000000e+00 0.0000000000000000e+00  0.0000000000000000e+00 0.0000000000000000e+00 0.0000000000000000e+00  0.0000000000000000e+00 0.0000000000000000e+00 0.0000000000000000e+00  0.0000000000000000e+00 0.0000000000000000e+00 0.0000000000000000e+00  0.0000000000000000e+00 0.0000000000000000e+00 0.0000000000000000e+00  0.0000000000000000e+00 0.0000000000000000e+00 0.0000000000000000e+00  0.0000000000000000e+00 -5.9329461262509518e-16 0.0000000000000000e+00  0.0000000000000000e+00 0.0000000000000000e+00 0.0000000000000000e+00  0.0000000000000000e+00 6.3379534649286820e-16 0.0000000000000000e+00  0.0000000000000000e+00 3.7955701346822667e-16 0.0000000000000000e+00  0.0000000000000000e+00 0.0000000000000000e+00 0.0000000000000000e+00  0.0000000000000000e+00 0.0000000000000000e+00 0.0000000000000000e+00  0.0000000000000000e+00 0.0000000000000000e+00 0.0000000000000000e+00  0.0000000000000000e+00 1.2243742950969664e-15 0.0000000000000000e+00  0.0000000000000000e+00 4.6010364672769221e-16 0.0000000000000000e+00  0.0000000000000000e+00 0.0000000000000000e+00 0.0000000000000000e+00  1.1249999999999998e+00 0.0000000000000000e+00 0.0000000000000000e+00  1.4999999999999984e+00 0.0000000000000000e+00 0.0000000000000000e+00  1.1250000000000027e+00 0.0000000000000000e+00 0.0000000000000000e+00  0.0000000000000000e+00 0.0000000000000000e+00 0.0000000000000000e+00  -3.6939302989801799e-15 -1.1543529845748207e-15 0.0000000000000000e+00  0.0000000000000000e+00 0.0000000000000000e+00 0.0000000000000000e+00  0.0000000000000000e+00 0.0000000000000000e+00 0.0000000000000000e+00  0.0000000000000000e+00 0.0000000000000000e+00 0.0000000000000000e+00  -4.2625829872767919e-16 0.0000000000000000e+00 0.0000000000000000e+00  0.0000000000000000e+00 0.0000000000000000e+00 0.0000000000000000e+00  0.0000000000000000e+00 0.0000000000000000e+00 0.0000000000000000e+00  1.2548601196650484e+00 -3.2693344682383108e-01 0.0000000000000000e+00  1.4202797650276173e+00 4.9575111846324308e-05 0.0000000000000000e+00  1.4473151243263780e+00 5.3789818846625039e-06 0.0000000000000000e+00  1.4599981062771261e+00 7.7375141065907826e-05 0.0000000000000000e+00  1.4889375271959879e+00 1.9631160874963316e-06 0.0000000000000000e+00  1.4928172059374487e+00 9.8262946324301692e-05 0.0000000000000000e+00  1.4998220107286604e+00 3.9365170820433151e-08 0.0000000000000000e+00  1.5000918838535853e+00 -8.2370301976783883e-05 0.0000000000000000e+00  1.4999960166087780e+00 -2.9925072762337948e-07 0.0000000000000000e+00  1.4999141068716899e+00 -1.1677473408236150e-03 0.0000000000000000e+00  1.4999999142680507e+00 -1.7363526323232611e-07 0.0000000000000000e+00  1.4591262488228349e+00 -8.1697397618831699e-03 0.0000000000000000e+00  1.4923530657171882e+00 -4.9469647217392517e-08 0.0000000000000000e+00  1.4889776195617381e+00 -1.1712532085116917e-08 0.0000000000000000e+00  1.4953954493973201e+00 7.6073241655849463e-10 0.0000000000000000e+00  1.4284976463841654e+00 -4.2930358575242705e-01 0.0000000000000000e+00  1.7554278189430037e+00 -2.7565026595078529e-01 0.0000000000000000e+00  1.4163696358126279e+00 5.9033991482008127e-10 0.0000000000000000e+00  9.7468252404232592e-01 3.7061010931445649e-10 0.0000000000000000e+00  1.2752533657150902e+00 5.6413036194508659e-01 0.0000000000000000e+00  1.5558549873491201e+00 -2.9606856765348277e-01 0.0000000000000000e+00  1.0826451708773532e+00 2.9463630920915840e-01 0.0000000000000000e+00  8.2734057148969020e-01 -4.1546759836121822e-01 0.0000000000000000e+00  1.2183915049266654e+00 -2.3618642025338202e-02 0.0000000000000000e+00  1.1314802776665807e+00 -6.1010158568494410e-01 0.0000000000000000e+00  3.4044536178626950e-01 2.2141676247025566e-01 0.0000000000000000e+00  9.3398474649534580e-01 -1.3835902559539836e-08 0.0000000000000000e+00  1.1610548733806052e+00 -5.5521363168365346e-09 0.0000000000000000e+00  1.0771906650735235e+00 -5.6451924082938049e-08 0.0000000000000000e+00  1.1629130511141319e+00 -2.1436154941815340e-03 0.0000000000000000e+00  1.1175883381078282e+00 -1.4138678856189174e-07 0.0000000000000000e+00  1.1346715410015085e+00 -7.8410344377746903e-05 0.0000000000000000e+00  1.0696131964485558e+00 -1.4558013100992766e-07 0.0000000000000000e+00  1.1871708079828631e+00 9.7992914996909450e-05 0.0000000000000000e+00  1.1964831723007769e+00 4.2594333008064545e-06 0.0000000000000000e+00  1.3814888489685291e+00 4.1360792991171782e-05 0.0000000000000000e+00  9.4340109693275320e-01 4.0739918116561548e-05 0.0000000000000000e+00  1.3186291143572764e+00 8.2919185819599934e-07 0.0000000000000000e+00  1.2101792219876701e+00 5.4985842390162266e-10 0.0000000000000000e+00  1.2389894989967114e+00 -2.8813705501644982e-09 0.0000000000000000e+00  1.1419408024015896e+00 -1.1018590364481997e-08 0.0000000000000000e+00  1.0218142166796849e+00 1.1185495778530687e-07 0.0000000000000000e+00  1.1453787198394934e+00 -4.2396771234366144e-08 0.0000000000000000e+00  1.0725889716932131e+00 4.6650894071081312e-05 0.0000000000000000e+00  1.1280885837854624e+00 -1.1207481243368179e-07 0.0000000000000000e+00  1.1638640061277370e+00 -6.5144069133728200e-04 0.0000000000000000e+00  1.1151380936282596e+00 -1.8176973659838782e-07 0.0000000000000000e+00  1.1377625348201790e+00 -4.6471793379270198e-04 0.0000000000000000e+00  1.1237248724666349e+00 -3.4967544001691451e-05 0.0000000000000000e+00  1.1486018353074647e+00 1.6676223498165185e-10 0.0000000000000000e+00  1.3678784743069159e+00 -1.0939707721931070e-01 0.0000000000000000e+00  6.0212135944072731e-01 5.4910829112916593e-01 0.0000000000000000e+00  1.0693518211684172e+00 9.1075938266942834e-06 0.0000000000000000e+00  1.0377378560846919e+00 -1.1486048141677829e-01 0.0000000000000000e+00  1.4973426817233897e+00 -6.1064329221264084e-03 0.0000000000000000e+00  1.3948795592436931e+00 5.6294398414244758e-10 0.0000000000000000e+00  1.4866219058207075e+00 -1.2422142195917324e-09 0.0000000000000000e+00  6.3098838019312586e-01 -1.0431969217978836e-01 0.0000000000000000e+00  1.5427728479418039e+00 3.3016082454398643e-01 0.0000000000000000e+00  3.1529551273584894e-01 -2.9262532983793438e-01 0.0000000000000000e+00  1.2047693619336057e+00 7.8251936807916839e-02 0.0000000000000000e+00  9.3642688595635581e-01 2.5979236007586917e-05 0.0000000000000000e+00  1.4378957896519335e+00 9.6778130087781639e-05 0.0000000000000000e+00  9.1016796038310999e-01 1.2689183150411223e-06 0.0000000000000000e+00  8.4145834272663589e-01 1.5624383691237573e-05 0.0000000000000000e+00  8.2402955358110286e-01 1.9809042187553748e-10 0.0000000000000000e+00  1.1912508836688072e+00 1.0482031664958280e-02 0.0000000000000000e+00  7.6059923315926425e-01 8.0508005862835657e-08 0.0000000000000000e+00  1.7045970570064384e+00 -1.9354928583239905e-01 0.0000000000000000e+00  1.8947538588930120e+00 -1.1303521844377074e-02 0.0000000000000000e+00  1.4927321738488268e+00 2.1566278386920954e-05 0.0000000000000000e+00  9.3778986123609254e-01 -9.6729220738905953e-11 0.0000000000000000e+00  1.0145057510214810e+00 1.3247100434556131e-05 0.0000000000000000e+00  1.1809736794703980e+00 2.5565842134041106e-01 0.0000000000000000e+00  1.0043367154354492e+00 5.5260144355061713e-01 0.0000000000000000e+00  1.1462413094482129e+00 5.4735169836766906e-01 0.0000000000000000e+00  1.7654536171625577e+00 3.6658405783640727e-02 0.0000000000000000e+00  1.0984959264776319e+00 -5.7246813880878689e-01 0.0000000000000000e+00  1.7766998010664210e+00 4.6631531369662688e-01 0.0000000000000000e+00  1.1100657965430860e+00 1.1003907063536368e-01 0.0000000000000000e+00  1.2391670749749073e+00 -4.2152906652779992e-01 0.0000000000000000e+00  1.3646140728426204e+00 2.3097831581435826e-02 0.0000000000000000e+00  7.3383112172589116e-01 1.6873316904764176e-02 0.0000000000000000e+00  7.7348803404964950e-01 1.9723727172781726e-10 0.0000000000000000e+00  1.2967966769062671e+00 4.1881733486420489e-10 0.0000000000000000e+00  1.4790924088861832e+00 5.3021200436529626e-10 0.0000000000000000e+00  1.4062499997443965e+00 4.4244807704248793e-10 0.0000000000000000e+00  5.4983050945773126e-01 1.1466907768879089e-10 0.0000000000000000e+00  5.4983050972911707e-01 1.3548947195013633e-10 0.0000000000000000e+00  0.0000000000000000e+00 0.0000000000000000e+00 0.0000000000000000e+00  1.1565246262315743e+00 -4.9534245094512382e-02 0.0000000000000000e+00  9.3260716083033868e-01 -1.0775636494223204e-01 0.0000000000000000e+00  0.0000000000000000e+00 -1.8119103219365891e-15 0.0000000000000000e+00  7.4038139357550559e-01 1.1424605051609207e-01 0.0000000000000000e+00  5.2793021829101394e-01 5.4629369361272224e-02 0.0000000000000000e+00  0.0000000000000000e+00 -3.6256584199811565e-16 0.0000000000000000e+00  1.0639874393198097e+00 2.3038323521197882e-01 0.0000000000000000e+00  6.5625000000000044e-01 0.0000000000000000e+00 0.0000000000000000e+00  1.6006149839053530e+00 -4.1480324071651686e-01 0.0000000000000000e+00  1.0905111270414203e+00 -1.0842178397762574e-01 0.0000000000000000e+00  1.1408123788359077e+00 -1.7077400371131216e-01 0.0000000000000000e+00  1.3080100138239017e+00 4.9474137783130284e-01 0.0000000000000000e+00  1.2801145167449830e+00 3.5771004876013995e-01 0.0000000000000000e+00  1.2507668254704549e+00 -5.3234387417541351e-01 0.0000000000000000e+00  1.1057144820152740e+00 -3.9282478606108706e-01 0.0000000000000000e+00  1.3244660910709061e+00 -4.1807525174516058e-01 0.0000000000000000e+00  1.6770868439183870e+00 -4.9625376210411526e-01 0.0000000000000000e+00  1.4144069740470195e+00 -5.7578779913864864e-01 0.0000000000000000e+00  1.3287947176638799e+00 6.3023234744853610e-10 0.0000000000000000e+00  1.4446590342070007e+00 7.1948705399609067e-10 0.0000000000000000e+00  1.4877530020799461e+00 7.6473704818949528e-10 0.0000000000000000e+00  1.0659981413491320e+00 4.2980395928385847e-10 0.0000000000000000e+00  6.7414314272653308e-01 1.5312061407643766e-10 0.0000000000000000e+00  1.3908869454959003e+00 5.1628819534258192e-10 0.0000000000000000e+00  1.3429285860594058e+00 6.6624669647463929e-10 0.0000000000000000e+00  1.3536562321218031e+00 -6.1416725354694841e-02 0.0000000000000000e+00  1.4320958813457147e+00 -3.9322213166406370e-02 0.0000000000000000e+00  1.4360293906220449e+00 -3.0530601882751637e-02 0.0000000000000000e+00  1.4737198898878485e+00 5.2273779703055025e-10 0.0000000000000000e+00  1.2806973291701962e+00 4.0659159580138071e-10 0.0000000000000000e+00  1.4062500002560037e+00 4.4257595543694224e-10 0.0000000000000000e+00  1.4609486760349293e+00 -2.5432761116360067e-09 0.0000000000000000e+00  1.4999715047450155e+00 -4.8383055603818387e-09 0.0000000000000000e+00  1.4051731435128483e+00 -6.6150841975101594e-09 0.0000000000000000e+00  1.3782500699128455e+00 -3.5284996088149989e-09 0.0000000000000000e+00  1.4430694640305950e+00 -1.0253189151896709e-08 0.0000000000000000e+00  1.4160908176912910e+00 -2.1214233249847439e-03 0.0000000000000000e+00  1.4997530682840750e+00 -2.8456847236890612e-03 0.0000000000000000e+00  1.4110206670090670e+00 -1.5893899908508845e-03 0.0000000000000000e+00  1.2401803590212503e+00 -2.4624542344539754e-01 0.0000000000000000e+00  1.2786577180625940e+00 -2.3892737507661638e-01 0.0000000000000000e+00  4.0784111483910551e-01 3.6479963355114847e-01 0.0000000000000000e+00  3.1669894255239078e-01 3.7850884555053860e-01 0.0000000000000000e+00  0.0000000000000000e+00 0.0000000000000000e+00 0.0000000000000000e+00  1.7803226712217782e-01 2.3170097445608676e-01 0.0000000000000000e+00  1.1261846583237985e-01 9.3785153789469583e-02 0.0000000000000000e+00  0.0000000000000000e+00 0.0000000000000000e+00 0.0000000000000000e+00  9.0802356616082169e-01 -5.6492455321669910e-01 0.0000000000000000e+00  1.4259431855086757e+00 5.8446288877577305e-05 0.0000000000000000e+00  1.4990427722920436e+00 5.2258891634114374e-05 0.0000000000000000e+00  1.4983066456271934e+00 6.9216697032544825e-05 0.0000000000000000e+00  1.3923825401981260e+00 3.3591545327477821e-06 0.0000000000000000e+00  1.4741770108849812e+00 6.3253476325630366e-06 0.0000000000000000e+00  1.4961340493334658e+00 3.5453453759590943e-06 0.0000000000000000e+00  1.1140887960335351e+00 1.1468997097772854e-06 0.0000000000000000e+00  1.3413219212433125e+00 7.8623912721855307e-07 0.0000000000000000e+00  6.1779659948394006e-01 1.5852281908393910e-05 0.0000000000000000e+00  6.1782357308684466e-01 1.2081955837112124e-05 0.0000000000000000e+00  0.0000000000000000e+00 -4.8523482077593672e-16 0.0000000000000000e+00  1.3636139767072688e+00 7.5581390005204706e-05 0.0000000000000000e+00  1.3177737818298325e+00 7.0807575289052400e-05 0.0000000000000000e+00  1.4797174013098426e+00 9.7246315901004435e-05 0.0000000000000000e+00  1.0985750729689538e+00 2.9852512139473416e-05 0.0000000000000000e+00  1.3781289440984117e+00 3.7682965269138277e-05 0.0000000000000000e+00  6.5530382492036587e-01 -4.9813967538833307e-06 0.0000000000000000e+00  5.8199191111878379e-01 -5.0498056300997702e-08 0.0000000000000000e+00  5.8199186963550531e-01 3.8137609467849543e-09 0.0000000000000000e+00  5.4869923799642421e-16 0.0000000000000000e+00 0.0000000000000000e+00  1.3757962762032065e+00 1.5361286454910480e-07 0.0000000000000000e+00  1.4964882573028175e+00 6.8056691723991589e-07 0.0000000000000000e+00  1.0697412086132605e+00 -1.3006913736530296e-07 0.0000000000000000e+00  1.3996017312792577e+00 -2.1891463576394793e-07 0.0000000000000000e+00  6.4888551796439975e-01 -6.7470900638950864e-08 0.0000000000000000e+00  6.5525085419976081e-01 -5.7367051872566241e-05 0.0000000000000000e+00  0.0000000000000000e+00 -7.5706552529212644e-16 0.0000000000000000e+00  1.4054538159649606e+00 -7.4487402113079291e-05 0.0000000000000000e+00  1.4981744127807235e+00 5.3025229667225953e-05 0.0000000000000000e+00  1.1308407221725196e+00 -1.9092437949263109e-04 0.0000000000000000e+00  1.4090184480806338e+00 -3.4554667032357010e-04 0.0000000000000000e+00  6.6585380400615879e-01 -1.5090460989029326e-04 0.0000000000000000e+00  6.4888562580582709e-01 -5.4198768814816923e-08 0.0000000000000000e+00  -7.9618468350099881e-16 0.0000000000000000e+00 0.0000000000000000e+00  1.4031644487066863e+00 -2.6991851851659406e-07 0.0000000000000000e+00  1.4999411938640284e+00 -2.6144584247176522e-07 0.0000000000000000e+00  1.1216410523111959e+00 -1.5396975079210963e-07 0.0000000000000000e+00  1.4064125898639317e+00 -2.2832214935782063e-07 0.0000000000000000e+00  6.5856961843042783e-01 -3.9011811021130489e-08 0.0000000000000000e+00  1.3930664991861395e+00 2.8421682705343125e-10 0.0000000000000000e+00  1.4994286257220031e+00 2.8749907179433376e-10 0.0000000000000000e+00  6.8374664676784203e-01 -2.2236311251593192e-09 0.0000000000000000e+00  6.8374664411367547e-01 -8.0481646994902490e-10 0.0000000000000000e+00  0.0000000000000000e+00 -3.7178552481220465e-16 0.0000000000000000e+00  1.3878966715548733e+00 -2.0536732345003988e-08 0.0000000000000000e+00  1.4999230804268464e+00 -2.5907888564152203e-08 0.0000000000000000e+00  5.2278400205926701e-01 -5.2899572178491863e-09 0.0000000000000000e+00  5.2278399276396037e-01 -2.6295968385769368e-09 0.0000000000000000e+00  0.0000000000000000e+00 0.0000000000000000e+00 0.0000000000000000e+00  1.0547575567297409e+00 -9.4493402834094288e-09 0.0000000000000000e+00  1.3236896162090019e+00 -3.3936160080087222e-08 0.0000000000000000e+00  6.2110991349246991e-01 -2.2574868162777762e-08 0.0000000000000000e+00  6.2110988001070977e-01 -1.3459236767944749e-08 0.0000000000000000e+00  0.0000000000000000e+00 0.0000000000000000e+00 0.0000000000000000e+00  1.0081938986124459e+00 -2.9457575687838629e-08 0.0000000000000000e+00  1.3639553392535608e+00 -6.2977447484878984e-08 0.0000000000000000e+00  1.3943928710923095e+00 -1.2238747944991250e-07 0.0000000000000000e+00  1.4981010497680176e+00 -9.9066699627458757e-08 0.0000000000000000e+00  6.8551168234663540e-01 -1.1238165390030062e-03 0.0000000000000000e+00  6.8431219400351984e-01 -3.1787688533027250e-04 0.0000000000000000e+00  0.0000000000000000e+00 0.0000000000000000e+00 0.0000000000000000e+00  1.4141423693041479e+00 -5.1925155318027711e-03 0.0000000000000000e+00  1.4206123266618633e+00 -1.8341532147955460e-03 0.0000000000000000e+00  6.5070943756593791e-01 -5.5270743448111736e-08 0.0000000000000000e+00  6.5070935674233332e-01 -3.9294449397517196e-08 0.0000000000000000e+00  0.0000000000000000e+00 0.0000000000000000e+00 0.0000000000000000e+00  1.0976429885652961e+00 -9.4037338032729795e-08 0.0000000000000000e+00  1.4044876346197117e+00 -1.8664542964787402e-07 0.0000000000000000e+00  1.4050131870002718e+00 -2.4850305742432503e-07 0.0000000000000000e+00  1.4999986904237090e+00 -2.4539465249350309e-07 0.0000000000000000e+00  6.6338261528653963e-01 -2.9124106504681869e-05 0.0000000000000000e+00  6.6335304800341610e-01 3.3555482762214536e-05 0.0000000000000000e+00  0.0000000000000000e+00 0.0000000000000000e+00 0.0000000000000000e+00  1.1485905500647824e+00 -5.9574858017957550e-04 0.0000000000000000e+00  1.4137366681007697e+00 -5.6973184449438151e-04 0.0000000000000000e+00  1.4092859528896271e+00 -1.0855115186751975e-04 0.0000000000000000e+00  1.5000803863027912e+00 -4.4051117448581640e-04 0.0000000000000000e+00  6.1566336433376423e-01 -5.5861634232052812e-08 0.0000000000000000e+00  6.1566326246786829e-01 -6.2855593329831887e-08 0.0000000000000000e+00  0.0000000000000000e+00 0.0000000000000000e+00 0.0000000000000000e+00  1.0939550466449619e+00 -1.7450119063577794e-07 0.0000000000000000e+00  1.3930569829869461e+00 -2.62