<?xml version="1.0"?>
<VTKFile type="UnstructuredGrid"  version="0.1"  >
<UnstructuredGrid>
<Piece  NumberOfPoints="525" NumberOfCells="924">
<Points>
<DataArray  type="Float64"  NumberOfComponents="3"  format="ascii">0 0 0  2.2 0 0  2.2 0.41 0  0 0.41 0  0.15 0.2 0  0.25 0.2 0  0.2 0.15 0  0.2 0.25 0  0.104762 0 0  0.209524 0 0  0.314286 0 0  0.419048 0 0  0.52381 0 0  0.628571 0 0  0.733333 0 0  0.838095 0 0  0.9428569999999999 0 0  1.04762 0 0  1.15238 0 0  1.25714 0 0  1.3619 0 0  1.46667 0 0  1.57143 0 0  1.67619 0 0  1.78095 0 0  1.88571 0 0  1.99048 0 0  2.09524 0 0  2.2 0.1025 0  2.2 0.205 0  2.2 0.3075 0  2.1 0.41 0  2 0.41 0  1.9 0.41 0  1.8 0.41 0  1.7 0.41 0  1.6 0.41 0  1.5 0.41 0  1.4 0.41 0  1.3 0.41 0  1.2 0.41 0  1.1 0.41 0  1 0.41 0  0.9 0.41 0  0.8 0.41 0  0.7 0.41 0  0.6 0.41 0  0.5 0.41 0  0.4 0.41 0  0.3 0.41 0  0.2 0.41 0  0.1 0.41 0  0 0.3075 0  0 0.205 0  0 0.1025 0  0.1566987973585577 0.2250001169958213 0  0.1749998830041787 0.2433012026414423 0  0.2250001169958213 0.2433012026414423 0  0.2433012026414423 0.2250001169958213 0  0.2433012026414423 0.1749998830041787 0  0.2250001169958213 0.1566987973585577 0  0.1749998830041787 0.1566987973585577 0  0.1566987973585577 0.1749998830041787 0  0.352033 0.262216 0  1.04579 0.252253 0  1.24065 0.243419 0  0.985775 0.171509 0  1.30324 0.187395 0  0.890988 0.190768 0  1.39085 0.202767 0  0.801464 0.204685 0  1.49904 0.204666 0  0.704267 0.202289 0  1.60238 0.204951 0  0.487789 0.19191 0  1.72935 0.219637 0  1.83335 0.187427 0  2.03359 0.193642 0  0.314663 0.307348 0  0.249039 0.333583 0  2.12147 0.253405 0  2.06373 0.0836837 0  0.0734726 0.267055 0  0.143989 0.0677174 0  0.0613613 0.33781 0  0.299628 0.236829 0  0.527114 0.295386 0  0.262384 0.26549 0  0.275777 0.18341 0  1.74578 0.330928 0  1.84001 0.302448 0  1.64998 0.313838 0  0.648421 0.302367 0  1.54544 0.308508 0  0.755686 0.306156 0  1.42668 0.314809 0  0.870524 0.298596 0  1.22553 0.112785 0  1.05603 0.147372 0  0.969346 0.329867 0  1.32527 0.276284 0  2.02914 0.29511 0  1.88168 0.119486 0  1.79545 0.104842 0  1.35688 0.0892539 0  1.69041 0.105324 0  0.914199 0.09555660000000001 0  1.58234 0.102923 0  0.61843 0.10815 0  1.47999 0.101161 0  0.725217 0.104273 0  0.821727 0.102306 0  1.96725 0.105778 0  0.418624 0.241547 0  0.135226 0.239087 0  1.14921 0.314841 0  0.404508 0.333259 0  0.590155 0.206269 0  2.12554 0.150731 0  1.93166 0.22436 0  0.104689 0.190046 0  0.267856 0.07447529999999999 0  0.269368 0.221581 0  0.434446 0.114927 0  1.0089 0.07933809999999999 0  0.953023 0.246698 0  1.25853 0.33355 0  1.05268 0.340828 0  2.1369 0.067383 0  0.522398 0.112537 0  1.3421 0.348929 0  0.215186 0.289473 0  0.203197 0.335348 0  1.13984 0.190728 0  1.93813 0.330504 0  1.10505 0.0883705 0  0.341988 0.0824728 0  0.253113 0.138035 0  0.291932 0.131907 0  0.203713 0.102439 0  0.150375 0.134668 0  0.151494 0.309119 0  0.354384 0.17896 0  0.06853670000000001 0.100776 0  0.424128 0.180088 0  0.474925 0.0568661 0  2.10843 0.347669 0  2.160735 0.2804525 0  2.160735 0.2292025 0  2.2 0.25625 0  2.079485 0.04184185 0  2.027105 0.04184185 0  2.04286 0 0  0.1767565 0.0338587 0  0.1243755 0.0338587 0  0.157143 0 0  0.08068065000000001 0.373905 0  0.03068065 0.373905 0  0.05 0.41 0  0.03068065 0.322655 0  0 0.35875 0  0.281851 0.3204655 0  0.2745195 0.3717915 0  0.3073315 0.358674 0  0.06741695 0.3024325 0  0.0367363 0.2872775 0  0.3071455 0.2720885 0  0.3258305 0.2495225 0  0.333348 0.284782 0  0.2557115 0.2995365 0  0.2885235 0.286419 0  2.075305 0.2742575 0  2.031365 0.244376 0  2.07753 0.2235235 0  2.01549 0.09473085000000001 0  1.978865 0.052889 0  2.00042 0.14971 0  2.04866 0.13866285 0  0.472869 0.2684665 0  0.4532065 0.2167285 0  0.5074514999999999 0.243648 0  2.16277 0.1778655 0  2.16277 0.1266155 0  2.2 0.15375 0  1.90667 0.171923 0  1.882505 0.2058935 0  1.857515 0.1534565 0  1.885835 0.263404 0  1.83668 0.2449375 0  0.6042925 0.1572095 0  0.647211 0.204279 0  0.6613485 0.1552195 0  0.3595855 0.3203035 0  0.3782705 0.2977375 0  0.155113 0.241194 0  0.1459625 0.2320435 0  0.1646446609406726 0.2353553390593274 0  0.259539 0.179205 0  0.2628885 0.191705 0  0.2482962819455563 0.1870590127797247 0  0.281006 0.2511595 0  1.0209025 0.1594405 0  1.05091 0.1998125 0  1.0157825 0.211881 0  1.264385 0.15009 0  1.23309 0.178102 0  1.271945 0.215407 0  1.291205 0.10101945 0  1.33006 0.13832445 0  0.928528 0.0477783 0  0.876147 0.0477783 0  0.890476 0 0  0.9025935 0.1431623 0  0.9499869999999999 0.1335328 0  0.9383815 0.1811385 0  0.867963 0.0989313 0  0.8563575 0.146537 0  0.8299110000000001 0.051153 0  1.411775 0.04462695 0  1.35939 0.04462695 0  1.414285 0 0  1.373865 0.14601045 0  1.347045 0.195081 0  1.418435 0.09520745 0  1.43542 0.151964 0  1.47333 0.0505805 0  0.7775300000000001 0.051153 0  0.785714 0 0  0.8115954999999999 0.1534955 0  0.8462259999999999 0.1977265 0  0.7734719999999999 0.1032895 0  0.7633405 0.154479 0  0.729275 0.0521365 0  1.52571 0.0505805 0  1.51905 0 0  1.489515 0.1529135 0  1.444945 0.2037165 0  1.531165 0.102042 0  1.54069 0.1537945 0  1.576885 0.0514615 0  1.9804 0.259735 0  1.982625 0.209001 0  1.820005 0.356224 0  1.870005 0.356224 0  1.85 0.41 0  1.78468 0.2610425 0  1.78135 0.203532 0  1.72289 0.370464 0  1.77289 0.370464 0  1.75 0.41 0  1.792895 0.316688 0  1.737565 0.2752825 0  1.62499 0.361919 0  1.67499 0.361919 0  1.65 0.41 0  1.69788 0.322383 0  1.689665 0.2667375 0  1.62618 0.2593945 0  1.665865 0.212294 0  0.6242105 0.3561835 0  0.6742105 0.3561835 0  0.6499999999999999 0.41 0  0.6192880000000001 0.254318 0  0.6763440000000001 0.252328 0  1.52272 0.359254 0  1.57272 0.359254 0  1.55 0.41 0  1.59771 0.311173 0  1.57391 0.2567295 0  1.52224 0.256587 0  1.55071 0.2048085 0  0.727843 0.358078 0  0.7778430000000001 0.358078 0  0.75 0.41 0  0.7020535 0.3042615 0  0.7299765 0.2542225 0  0.778575 0.2554205 0  0.7528655 0.203487 0  1.41334 0.3624045 0  1.46334 0.3624045 0  1.45 0.41 0  1.48606 0.3116585 0  1.46286 0.2597375 0  1.408765 0.258788 0  0.8352619999999999 0.354298 0  0.885262 0.354298 0  0.8500000000000001 0.41 0  0.813105 0.302376 0  0.8359939999999999 0.2516405 0  0.880756 0.244682 0  0.9346730000000001 0.3699335 0  0.984673 0.3699335 0  0.95 0.41 0  0.9199349999999999 0.3142315 0  0.676894 0.0521365 0  0.680952 0 0  0.714742 0.153281 0  0.6718235 0.1062115 0  0.6235005 0.054075 0  1.629265 0.0514615 0  1.62381 0 0  1.59236 0.153937 0  1.636375 0.1041235 0  1.646395 0.1551375 0  1.6833 0.052662 0  1.73568 0.052662 0  1.72857 0 0  1.70988 0.1624805 0  1.74293 0.105083 0  1.7624 0.1622395 0  1.7882 0.052421 0  1.84058 0.052421 0  1.83333 0 0  1.8144 0.1461345 0  1.838565 0.112164 0  1.883695 0.059743 0  1.124605 0.3624205 0  1.174605 0.3624205 0  1.15 0.41 0  1.314255 0.2318395 0  1.28296 0.2598515 0  1.35806 0.2395255 0  1.375975 0.2955465 0  1.92648 0.052889 0  1.938095 0 0  1.924465 0.112632 0  1.949455 0.165069 0  0.352254 0.3716295 0  0.402254 0.3716295 0  0.35 0.41 0  0.513557 0.352693 0  0.563557 0.352693 0  0.55 0.41 0  0.5877675 0.2988765 0  0.5586344999999999 0.2508275 0  0.538972 0.1990895 0  0.452254 0.3716295 0  0.45 0.41 0  0.465811 0.3143225 0  0.411566 0.287403 0  0.3853285 0.2518815 0  0.1199575 0.2145665 0  0.0890808 0.2285505 0  0.1043493 0.253071 0  0.2245195 0.3717915 0  0.25 0.41 0  0.291071 0.03723765 0  0.23869 0.03723765 0  0.261905 0 0  0.265876 0.2435355 0  0.2563345 0.2232905 0  0.2528425 0.245245 0  0.284498 0.229205 0  1.032465 0.11335505 0  0.9973375 0.12542355 0  0.9615494999999999 0.08744735000000001 0  0.9220055 0.218733 0  0.9693989999999999 0.2091035 0  0.9611845 0.2882825 0  0.9117735 0.272647 0  1.229265 0.371775 0  1.279265 0.371775 0  1.25 0.41 0  1.02634 0.375414 0  1.07634 0.375414 0  1.05 0.41 0  1.011013 0.3353475 0  2.11607 0.0336915 0  2.16845 0.0336915 0  2.14762 0 0  2.16845 0.0849415 0  2.2 0.05125 0  2.100315 0.07553335 0  0.5562765000000001 0.159403 0  0.570414 0.1103435 0  0.5050935 0.1522235 0  1.32105 0.3794645 0  1.37105 0.3794645 0  1.35 0.41 0  1.333685 0.3126065 0  1.38439 0.331869 0  0.9994065 0.2494755 0  1.007568 0.29106 0  1.300315 0.3412395 0  1.2919 0.304917 0  2.13122 0.109057 0  2.094635 0.11720735 0  0.2725725 0.2024955 0  0.259684 0.2107905 0  0.2482962819455563 0.2129409872202754 0  0.2877025 0.2101195 0  2.123505 0.202068 0  2.079565 0.1721865 0  1.02826 0.03966905 0  0.9758784999999999 0.03966905 0  0.9952384999999999 0 0  1.049235 0.2965405 0  1.100945 0.3278345 0  1.0975 0.283547 0  0.5711200000000001 0.054075 0  0.5761905 0 0  0.523104 0.0562685 0  1.24959 0.2884845 0  1.20387 0.3241955 0  1.19493 0.27913 0  0.238785 0.2774815 0  0.2321125 0.311528 0  0.226118 0.3344655 0  0.2015985 0.3726739999999999 0  1.144525 0.2527845 0  1.190245 0.2170735 0  1.092815 0.2214905 0  0.2091915 0.3124105 0  0.220093 0.266387 0  0.243692 0.2543955 0  0.2353553390593274 0.2353553390593274 0  0.478422 0.113732 0  0.4611175 0.1534185 0  1.919065 0.370252 0  1.969065 0.370252 0  1.95 0.41 0  1.983635 0.312807 0  2.01457 0.352555 0  1.88907 0.316476 0  1.934895 0.277432 0  1.182685 0.1517565 0  1.097935 0.16905 0  1.128715 0.04418525 0  1.076335 0.04418525 0  1.1 0 0  1.056975 0.08385429999999999 0  1.08054 0.11787125 0  1.122445 0.13954925 0  1.16529 0.10057775 0  0.304922 0.07847404999999999 0  0.328137 0.0412364 0  0.380518 0.0412364 0  0.366667 0 0  0.388217 0.09869990000000001 0  0.426747 0.0574635 0  0.31696 0.1071899 0  0.279894 0.10319115 0  0.2725225 0.134971 0  0.2604845 0.10625515 0  0.228413 0.120237 0  0.2143565 0.129569 0  0.2390565 0.147367 0  1.30701 0.04462695 0  1.30952 0 0  1.241335 0.0563925 0  0.2357845 0.08845715 0  1.188955 0.0563925 0  1.20476 0 0  0.2066185 0.0512195 0  0.173851 0.08507819999999999 0  0.0367363 0.2360275 0  0 0.25625 0  0.264445 0.1607225 0  0.248207 0.1565175 0  0.2353553390593274 0.1646446609406726 0  0.2838545 0.1576585 0  0.130694 0.182523 0  0.1273445 0.195023 0  0.1517037180544437 0.1870590127797247 0  0.127532 0.162357 0  0.153537 0.154834 0  0.0523445 0.197523 0  0
[...]
<PointData  Vectors="u"> 
<DataArray  type="Float64"  Name="u"  NumberOfComponents="3" format="ascii">-1.0620563020717493e-15 1.9810417691397034e-15 0.0000000000000000e+00  0.0000000000000000e+00 0.0000000000000000e+00 0.0000000000000000e+00  0.0000000000000000e+00 0.0000000000000000e+00 0.0000000000000000e+00  1.1547966688485731e-15 8.0327753904175681e-16 0.0000000000000000e+00  0.0000000000000000e+00 0.0000000000000000e+00 0.0000000000000000e+00  0.0000000000000000e+00 0.0000000000000000e+00 0.0000000000000000e+00  0.0000000000000000e+00 0.0000000000000000e+00 0.0000000000000000e+00  0.0000000000000000e+00 0.0000000000000000e+00 0.0000000000000000e+00  0.0000000000000000e+00 0.0000000000000000e+00 0.0000000000000000e+00  0.0000000000000000e+00 9.7241687068689482e-16 0.0000000000000000e+00  0.0000000000000000e+00 0.0000000000000000e+00 0.0000000000000000e+00  0.0000000000000000e+00 -1.2267217924156158e-15 0.0000000000000000e+00  0.0000000000000000e+00 0.0000000000000000e+00 0.0000000000000000e+00  0.0000000000000000e+00 -2.5352544829817360e-15 0.0000000000000000e+00  0.0000000000000000e+00 8.0145869113264634e-16 0.0000000000000000e+00  0.0000000000000000e+00 4.2537089241755781e-16 0.0000000000000000e+00  0.0000000000000000e+00 -3.7372411461668000e-16 0.0000000000000000e+00  0.0000000000000000e+00 0.0000000000000000e+00 0.0000000000000000e+00  0.0000000000000000e+00 -4.4795314524511115e-16 0.0000000000000000e+00  0.0000000000000000e+00 0.0000000000000000e+00 0.0000000000000000e+00  -6.3113068485546997e-16 0.0000000000000000e+00 0.0000000000000000e+00  -3.0985586207478329e-16 0.0000000000000000e+00 0.0000000000000000e+00  4.0200620133728282e-16 0.0000000000000000e+00 0.0000000000000000e+00  -7.6660396398923356e-16 0.0000000000000000e+00 0.0000000000000000e+00  -5.3882626614879290e-16 -3.0827856267859610e-16 0.0000000000000000e+00  0.0000000000000000e+00 -3.3900510577595519e-16 0.0000000000000000e+00  0.0000000000000000e+00 7.8100032642895942e-16 0.0000000000000000e+00  0.0000000000000000e+00 0.0000000000000000e+00 0.0000000000000000e+00  1.1250000003574276e+00 3.0509202488677666e-10 0.0000000000000000e+00  1.5000000000001674e+00 4.9537252396669755e-10 0.0000000000000000e+00  1.1249999996428002e+00 3.0465353355646112e-10 0.0000000000000000e+00  0.0000000000000000e+00 0.0000000000000000e+00 0.0000000000000000e+00  0.0000000000000000e+00 -5.5886618629005574e-16 0.0000000000000000e+00  1.0210694354808829e-15 0.0000000000000000e+00 0.0000000000000000e+00  0.0000000000000000e+00 0.0000000000000000e+00 0.0000000000000000e+00  0.0000000000000000e+00 0.0000000000000000e+00 0.0000000000000000e+00  0.0000000000000000e+00 0.0000000000000000e+00 0.0000000000000000e+00  0.0000000000000000e+00 0.0000000000000000e+00 0.0000000000000000e+00  0.0000000000000000e+00 0.0000000000000000e+00 0.0000000000000000e+00  0.0000000000000000e+00 -3.0107592334168387e-16 0.0000000000000000e+00  0.0000000000000000e+00 0.0000000000000000e+00 0.0000000000000000e+00  0.0000000000000000e+00 0.0000000000000000e+00 0.0000000000000000e+00  0.0000000000000000e+00 0.0000000000000000e+00 0.0000000000000000e+00  0.0000000000000000e+00 0.0000000000000000e+00 0.0000000000000000e+00  0.0000000000000000e+00 0.0000000000000000e+00 0.0000000000000000e+00  0.0000000000000000e+00 0.0000000000000000e+00 0.0000000000000000e+00  0.0000000000000000e+00 0.0000000000000000e+00 0.0000000000000000e+00  0.0000000000000000e+00 0.0000000000000000e+00 0.0000000000000000e+00  5.1772706693415763e-16 0.0000000000000000e+00 0.0000000000000000e+00  0.0000000000000000e+00 -1.4548909686662974e-15 0.0000000000000000e+00  0.0000000000000000e+00 7.9565125173418891e-16 0.0000000000000000e+00  0.0000000000000000e+00 0.0000000000000000e+00 0.0000000000000000e+00  1.1250000000000000e+00 0.0000000000000000e+00 0.0000000000000000e+00  1.5000000000000064e+00 0.0000000000000000e+00 0.0000000000000000e+00  1.1250000000000004e+00 0.0000000000000000e+00 0.0000000000000000e+00  0.0000000000000000e+00 0.0000000000000000e+00 0.0000000000000000e+00  3.6002847140349645e-15 4.5003541153464976e-16 0.0000000000000000e+00  5.5768234769742594e-16 0.0000000000000000e+00 0.0000000000000000e+00  0.0000000000000000e+00 0.0000000000000000e+00 0.0000000000000000e+00  0.0000000000000000e+00 0.0000000000000000e+00 0.0000000000000000e+00  -1.4885358161925823e-15 3.0176312607043191e-16 0.0000000000000000e+00  0.0000000000000000e+00 0.0000000000000000e+00 0.0000000000000000e+00  7.5342452177487974e-16 0.0000000000000000e+00 0.0000000000000000e+00  1.2548579109452918e+00 -3.2708737975712721e-01 0.0000000000000000e+00  1.4202797867551595e+00 4.9581408517596167e-05 0.0000000000000000e+00  1.4473151318504736e+00 5.3610425171636493e-06 0.0000000000000000e+00  1.4599981099254842e+00 7.7481752944450670e-05 0.0000000000000000e+00  1.4889375252911405e+00 1.9516310903619588e-06 0.0000000000000000e+00  1.4928172710239065e+00 9.8901396742048699e-05 0.0000000000000000e+00  1.4998220106455025e+00 3.4687353852644324e-08 0.0000000000000000e+00  1.5000919059167925e+00 -8.0334471896265465e-05 0.0000000000000000e+00  1.4999960166063027e+00 -3.0028870505667456e-07 0.0000000000000000e+00  1.4999141216849725e+00 -1.1624823016868698e-03 0.0000000000000000e+00  1.4999999142682592e+00 -1.7371307971948229e-07 0.0000000000000000e+00  1.4591107927088174e+00 -8.1642492844743435e-03 0.0000000000000000e+00  1.4923530657013060e+00 -4.9391396332684236e-08 0.0000000000000000e+00  1.4889776195699551e+00 -1.1666806377820757e-08 0.0000000000000000e+00  1.4953954493976798e+00 7.6609536808036953e-10 0.0000000000000000e+00  1.4286394227043377e+00 -4.2939102010130709e-01 0.0000000000000000e+00  1.7556072770587920e+00 -2.7561712369512348e-01 0.0000000000000000e+00  1.4163696358127422e+00 5.9171834226881657e-10 0.0000000000000000e+00  9.7468252404294109e-01 3.7183849708499801e-10 0.0000000000000000e+00  1.2753050951401057e+00 5.6418495860166262e-01 0.0000000000000000e+00  1.5556066077139898e+00 -2.9602027390643926e-01 0.0000000000000000e+00  1.0826408865248283e+00 2.9463200829183217e-01 0.0000000000000000e+00  8.2732883269159951e-01 -4.1568493414792912e-01 0.0000000000000000e+00  1.2183792416500796e+00 -2.3621080292779879e-02 0.0000000000000000e+00  1.1316373679704508e+00 -6.1018335498988963e-01 0.0000000000000000e+00  3.4027323622428368e-01 2.2110752587388918e-01 0.0000000000000000e+00  9.3398474642191309e-01 -1.3804787395033702e-08 0.0000000000000000e+00  1.1610548733497901e+00 -5.5263612408721483e-09 0.0000000000000000e+00  1.0771906649500771e+00 -5.6418226886128291e-08 0.0000000000000000e+00  1.1629070434029696e+00 -2.1397320143037918e-03 0.0000000000000000e+00  1.1175883381021616e+00 -1.4157686244557019e-07 0.0000000000000000e+00  1.1346695673331331e+00 -7.6656578303009110e-05 0.0000000000000000e+00  1.0696131977371399e+00 -1.4693748951503575e-07 0.0000000000000000e+00  1.1871704560713785e+00 9.8494953298068844e-05 0.0000000000000000e+00  1.1964831559034230e+00 4.2459320807643005e-06 0.0000000000000000e+00  1.3814888220918564e+00 4.1357038689700699e-05 0.0000000000000000e+00  9.4340110433250890e-01 4.0788417393595892e-05 0.0000000000000000e+00  1.3186291193685415e+00 8.2205269291674329e-07 0.0000000000000000e+00  1.2101792219856593e+00 5.5327062357772196e-10 0.0000000000000000e+00  1.2389894990152763e+00 -2.8610168128542063e-09 0.0000000000000000e+00  1.1419408024496858e+00 -1.0983838840096476e-08 0.0000000000000000e+00  1.0218142129305943e+00 1.0894977850784016e-07 0.0000000000000000e+00  1.1453787199424756e+00 -4.2347228566437781e-08 0.0000000000000000e+00  1.0725890947335881e+00 4.6842567949954465e-05 0.0000000000000000e+00  1.1280885838763108e+00 -1.1213826572441864e-07 0.0000000000000000e+00  1.1638724814087162e+00 -6.4430956653389556e-04 0.0000000000000000e+00  1.1151380931963861e+00 -1.8244634022756025e-07 0.0000000000000000e+00  1.1377654292961641e+00 -4.6219767353623348e-04 0.0000000000000000e+00  1.1237256682392798e+00 -3.4147133619756993e-05 0.0000000000000000e+00  1.1486018353135978e+00 1.7354450418619375e-10 0.0000000000000000e+00  1.3678379881982896e+00 -1.0945678781278739e-01 0.0000000000000000e+00  6.0241233475538636e-01 5.4945500037173944e-01 0.0000000000000000e+00  1.0693518527494528e+00 9.0919809478277104e-06 0.0000000000000000e+00  1.0377679538368867e+00 -1.1490060991962490e-01 0.0000000000000000e+00  1.4973399245308476e+00 -6.0964723816486341e-03 0.0000000000000000e+00  1.3948795592435383e+00 5.6420494772236780e-10 0.0000000000000000e+00  1.4866219058177386e+00 -1.2238726399440204e-09 0.0000000000000000e+00  6.3107720125230171e-01 -1.0400675927061642e-01 0.0000000000000000e+00  1.5426882272730655e+00 3.3002389376686270e-01 0.0000000000000000e+00  3.1529688190200095e-01 -2.9276396705617075e-01 0.0000000000000000e+00  1.2047845866930149e+00 7.8273027372022033e-02 0.0000000000000000e+00  9.3642684540528964e-01 2.5990238842540902e-05 0.0000000000000000e+00  1.4378957615436021e+00 9.6988509193848829e-05 0.0000000000000000e+00  9.1016797217182199e-01 1.2629240635146597e-06 0.0000000000000000e+00  8.4145838974490261e-01 1.5619336021798847e-05 0.0000000000000000e+00  8.2402955358048502e-01 1.9841181930039396e-10 0.0000000000000000e+00  1.1912667588300390e+00 1.0497394479178771e-02 0.0000000000000000e+00  7.6059923696405318e-01 7.8695565295290749e-08 0.0000000000000000e+00  1.7049303696477152e+00 -1.9346129707121756e-01 0.0000000000000000e+00  1.8948842420696519e+00 -1.1242375081936715e-02 0.0000000000000000e+00  1.4927321678488257e+00 2.1538031843206050e-05 0.0000000000000000e+00  9.3778986122723473e-01 -9.0634886635252019e-11 0.0000000000000000e+00  1.0145057100158348e+00 1.3232840566047596e-05 0.0000000000000000e+00  1.1810070580207732e+00 2.5563927727803015e-01 0.0000000000000000e+00  1.0040841914194418e+00 5.5228135313120408e-01 0.0000000000000000e+00  1.1460832911936656e+00 5.4711734654592803e-01 0.0000000000000000e+00  1.7651799852283772e+00 3.6532360543220246e-02 0.0000000000000000e+00  1.0984242467667282e+00 -5.7237618466952700e-01 0.0000000000000000e+00  1.7768137064724969e+00 4.6640420779890540e-01 0.0000000000000000e+00  1.1099374698566264e+00 1.0993189198678485e-01 0.0000000000000000e+00  1.2391034991010867e+00 -4.2136546345486781e-01 0.0000000000000000e+00  1.3645701061761124e+00 2.3084463237643956e-02 0.0000000000000000e+00  7.3386219021314592e-01 1.6883834774108250e-02 0.0000000000000000e+00  7.7348803404997546e-01 1.9760608537296784e-10 0.0000000000000000e+00  1.2967966769068324e+00 4.1956953991981466e-10 0.0000000000000000e+00  1.4790924088863819e+00 5.3122850568982820e-10 0.0000000000000000e+00  1.4062499997449771e+00 4.4323215928642632e-10 0.0000000000000000e+00  5.4983050945766099e-01 1.1492497530155563e-10 0.0000000000000000e+00  5.4983050973003056e-01 1.3607024989763718e-10 0.0000000000000000e+00  0.0000000000000000e+00 0.0000000000000000e+00 0.0000000000000000e+00  1.1563462386930126e+00 -4.9546468260932737e-02 0.0000000000000000e+00  9.3245117001813460e-01 -1.0773133825255736e-01 0.0000000000000000e+00  0.0000000000000000e+00 -1.6968314741108348e-15 0.0000000000000000e+00  7.4037246631716092e-01 1.1424549828235087e-01 0.0000000000000000e+00  5.2792662177412930e-01 5.4625200412649400e-02 0.0000000000000000e+00  0.0000000000000000e+00 -4.8942540202581944e-16 0.0000000000000000e+00  1.0639857999966609e+00 2.3037230708901646e-01 0.0000000000000000e+00  6.5624999999999989e-01 0.0000000000000000e+00 0.0000000000000000e+00  1.6008071189062079e+00 -4.1482586639651980e-01 0.0000000000000000e+00  1.0906083106713809e+00 -1.0841742909327541e-01 0.0000000000000000e+00  1.1409268708450138e+00 -1.7078918302554258e-01 0.0000000000000000e+00  1.3080226017446728e+00 4.9475105798012209e-01 0.0000000000000000e+00  1.2801194399700067e+00 3.5770438141253663e-01 0.0000000000000000e+00  1.2508645117303541e+00 -5.3250075411163988e-01 0.0000000000000000e+00  1.1057057729444295e+00 -3.9302297361755928e-01 0.0000000000000000e+00  1.3245415075696789e+00 -4.1821315599340647e-01 0.0000000000000000e+00  1.6773417514295716e+00 -4.9625211223940308e-01 0.0000000000000000e+00  1.4145840707026607e+00 -5.7588542863446313e-01 0.0000000000000000e+00  1.3287947176633608e+00 6.3245574935833469e-10 0.0000000000000000e+00  1.4446590342058216e+00 7.2457005032063054e-10 0.0000000000000000e+00  1.4877530020797818e+00 7.6760183627973859e-10 0.0000000000000000e+00  1.0659981413517152e+00 4.3285774429217501e-10 0.0000000000000000e+00  6.7414314272998399e-01 1.5491692067029467e-10 0.0000000000000000e+00  1.3908869454986652e+00 5.2326986826355509e-10 0.0000000000000000e+00  1.3429285860605789e+00 6.6958505927024128e-10 0.0000000000000000e+00  1.3536380175981559e+00 -6.1436978360306316e-02 0.0000000000000000e+00  1.4320627502986112e+00 -3.9340370439410223e-02 0.0000000000000000e+00  1.4360128919430044e+00 -3.0533172505585571e-02 0.0000000000000000e+00  1.4737198898876500e+00 5.2373011042144623e-10 0.0000000000000000e+00  1.2806973291696109e+00 4.0731481275857624e-10 0.0000000000000000e+00  1.4062500002554492e+00 4.4335964674313329e-10 0.0000000000000000e+00  1.4609486760417130e+00 -2.5204275960028058e-09 0.0000000000000000e+00  1.4999715047447630e+00 -4.8076682556371607e-09 0.0000000000000000e+00  1.4051731435303159e+00 -6.5818415646043896e-09 0.0000000000000000e+00  1.3782500698987807e+00 -3.5038342572102348e-09 0.0000000000000000e+00  1.4430694640133050e+00 -1.0211368790375667e-08 0.0000000000000000e+00  1.4160952764858166e+00 -2.1110118306835010e-03 0.0000000000000000e+00  1.4997524539593672e+00 -2.8377755973149127e-03 0.0000000000000000e+00  1.4110240505450022e+00 -1.5824791282820802e-03 0.0000000000000000e+00  1.2402542829394123e+00 -2.4631820727462539e-01 0.0000000000000000e+00  1.2786904781580881e+00 -2.3901714227828266e-01 0.0000000000000000e+00  4.0813523473310148e-01 3.6508778844553030e-01 0.0000000000000000e+00  3.1693863493397145e-01 3.7883279696306804e-01 0.0000000000000000e+00  0.0000000000000000e+00 0.0000000000000000e+00 0.0000000000000000e+00  1.7791484624461631e-01 2.3147219912348396e-01 0.0000000000000000e+00  1.1255233419032323e-01 9.3596026269227015e-02 0.0000000000000000e+00  0.0000000000000000e+00 5.9318614649775980e-16 0.0000000000000000e+00  9.0809567567459093e-01 -5.6507596177920549e-01 0.0000000000000000e+00  1.4259431709361809e+00 5.8479525459301484e-05 0.0000000000000000e+00  1.4990427704137035e+00 5.2263220790503059e-05 0.0000000000000000e+00  1.4983066486763583e+00 6.9266686650072681e-05 0.0000000000000000e+00  1.3923825320603420e+00 3.3452993616444427e-06 0.0000000000000000e+00  1.4741770051126000e+00 6.3057668500249787e-06 0.0000000000000000e+00  1.4961340508966217e+00 3.5301605183282666e-06 0.0000000000000000e+00  1.1140887873948588e+00 1.1400280728140320e-06 0.0000000000000000e+00  1.3413219167031682e+00 7.7917265471465991e-07 0.0000000000000000e+00  6.1779661854893109e-01 1.5891447410910814e-05 0.0000000000000000e+00  6.1782373370263921e-01 1.2180996161727145e-05 0.0000000000000000e+00  0.0000000000000000e+00 -2.0815408736755188e-15 0.0000000000000000e+00  1.3636141396527013e+00 7.6005582525989442e-05 0.0000000000000000e+00  1.3177738266838583e+00 7.0978501925368683e-05 0.0000000000000000e+00  1.4797174364902370e+00 9.7538370486747780e-05 0.0000000000000000e+00  1.0985754323412142e+00 3.0270291730584090e-05 0.0000000000000000e+00  1.3781293194168145e+00 3.8530106161504486e-05 0.0000000000000000e+00  6.5530427604605335e-01 -4.7610511879841753e-06 0.0000000000000000e+00  5.8199191015727336e-01 -5.0926553221580408e-08 0.0000000000000000e+00  5.8199186733623076e-01 2.9835414373432088e-09 0.0000000000000000e+00  0.0000000000000000e+00 0.0000000000000000e+00 0.0000000000000000e+00  1.3757962738389755e+00 1.4894664564950267e-07 0.0000000000000000e+00  1.4964882566576374e+00 6.7300356195664341e-07 0.0000000000000000e+00  1.0697412071235111e+00 -1.3158407216256054e-07 0.0000000000000000e+00  1.3996017304207018e+00 -2.2117698513348794e-07 0.0000000000000000e+00  6.4888551771193159e-01 -6.7683471953977394e-08 0.0000000000000000e+00  6.5525190423442348e-01 -5.6937757022413025e-05 0.0000000000000000e+00  0.0000000000000000e+00 8.3863054923611678e-16 0.0000000000000000e+00  1.4054544928722001e+00 -7.2928857877553260e-05 0.0000000000000000e+00  1.4981744895909526e+00 5.4212086660484753e-05 0.0000000000000000e+00  1.1308423097710794e+00 -1.8944433877184468e-04 0.0000000000000000e+00  1.4090196912641155e+00 -3.4286108859708531e-04 0.0000000000000000e+00  6.6585587429856363e-01 -1.5013368645730424e-04 0.0000000000000000e+00  6.4888562583122766e-01 -5.4275177678412651e-08 0.0000000000000000e+00  3.5053504821427926e-16 0.0000000000000000e+00 0.0000000000000000e+00  1.4031644484199839e+00 -2.7094133037030133e-07 0.0000000000000000e+00  1.4999411938415914e+00 -2.6379420803689874e-07 0.0000000000000000e+00  1.1216410522589699e+00 -1.5423549622453258e-07 0.0000000000000000e+00  1.4064125898192750e+00 -2.2872285525301484e-07 0.0000000000000000e+00  6.5856961854500273e-01 -3.9025696269792339e-08 0.0000000000000000e+00  1.3930664991823591e+00 2.9323325996095596e-10 0.0000000000000000e+00  1.4994286257217042e+00 2.9792336869396325e-10 0.0000000000000000e+00  6.8374664673701779e-01 -2.2135076820595773e-09 0.0000000000000000e+00  6.8374664409631436e-01 -7.9834503676993412e-10 0.0000000000000000e+00  0.0000000000000000e+00 0.0000000000000000e+00 0.0000000000000000e+00  1.3878966715175884e+00 -2.0481537893999970e-08 0.0000000000000000e+00  1.4999230804278925e+00 -2.5842600423446312e-08 0.0000000000000000e+00  5.2278400199728747e-01 -5.2788492210734100e-09 0.0000000000000000e+00  5.2278399272386045e-01 -2.6211835040947538e-09 0.0000000000000000e+00  0.0000000000000000e+00 0.0000000000000000e+00 0.0000000000000000e+00  1.0547575566798530e+00 -9.4191022874265827e-09 0.0000000000000000e+00  1.3236896161452134e+00 -3.3874066472982063e-08 0.0000000000000000e+00  6.2110991337304644e-01 -2.2564294211098379e-08 0.0000000000000000e+00  6.2110987991332278e-01 -1.3442659137797689e-08 0.0000000000000000e+00  0.0000000000000000e+00 0.0000000000000000e+00 0.0000000000000000e+00  1.0081938985094703e+00 -2.9417255394753319e-08 0.0000000000000000e+00  1.3639553391783381e+00 -6.2912051287368422e-08 0.0000000000000000e+00  1.3943928710210145e+00 -1.2238325834887408e-07 0.0000000000000000e+00  1.4981010497578890e+00 -9.9007621383573772e-08 0.0000000000000000e+00  6.8550582265911841e-01 -1.1224870729762341e-03 0.0000000000000000e+00  6.8430837246733045e-01 -3.1672846257828352e-04 0.0000000000000000e+00  0.0000000000000000e+00 0.0000000000000000e+00 0.0000000000000000e+00  1.4141365649086661e+00 -5.1856961263401511e-03 0.0000000000000000e+00  1.4206091626929611e+00 -1.8286992167661886e-03 0.0000000000000000e+00  6.5070943754972577e-01 -5.5351927433591221e-08 0.0000000000000000e+00  6.5070935663111173e-01 -3.9311044408564027e-08 0.0000000000000000e+00  0.0000000000000000e+00 0.0000000000000000e+00 0.0000000000000000e+00  1.0976429884533072e+00 -9.4061699569637153e-08 0.0000000000000000e+00  1.4044876345931498e+00 -1.8682019359212133e-07 0.0000000000000000e+00  1.4050131871096729e+00 -2.4908100739171076e-07 0.0000000000000000e+00  1.4999986904240192e+00 -2.4578150759672823e-07 0.0000000000000000e+00  6.6338052012629423e-01 -2.8394186287335231e-05 0.0000000000000000e+00  6.6335195413662251e-01 3.4000956051979988e-05 0.0000000000000000e+00  0.0000000000000000e+00 0.0000000000000000e+00 0.0000000000000000e+00  1.1485869314532062e+00 -5.9291472632200140e-04 0.0000000000000000e+00  1.4137348745337464e+00 -5.6612393933889039e-04 0.0000000000000000e+00  1.4092849490284656e+00 -1.0629619458533583e-04 0.0000000000000000e+00  1.5000804273630797e+00 -4.3711939553373307e-04 0.0000000000000000e+00  6.1566336532572552e-01 -5.6333673906483693e-08 0.0000000000000000e+00  6.1566326278586647e-01 -6.3079532952286455e-08 0.0000000000000000e+00  0.0000000000000000e+00 0.0000000000000000e+00 0.0000000000000000e+00  1.0939550470087793e+00 -1.7508534001934769e-07 0.0000000000000000e+00  1.3930569835160196e+00 -2.64