<?xml version="1.0"?>
<VTKFile type="UnstructuredGrid"  version="0.1"  >
<UnstructuredGrid>
<Piece  NumberOfPoints="525" NumberOfCells="924">
<Points>
<DataArray  type="Float64"  NumberOfComponents="3"  format="ascii">0 0 0  2.2 0 0  2.2 0.41 0  0 0.41 0  0.15 0.2 0  0.25 0.2 0  0.2 0.15 0  0.2 0.25 0  0.104762 0 0  0.209524 0 0  0.314286 0 0  0.419048 0 0  0.52381 0 0  0.628571 0 0  0.733333 0 0  0.838095 0 0  0.9428569999999999 0 0  1.04762 0 0  1.15238 0 0  1.25714 0 0  1.3619 0 0  1.46667 0 0  1.57143 0 0  1.67619 0 0  1.78095 0 0  1.88571 0 0  1.99048 0 0  2.09524 0 0  2.2 0.1025 0  2.2 0.205 0  2.2 0.3075 0  2.1 0.41 0  2 0.41 0  1.9 0.41 0  1.8 0.41 0  1.7 0.41 0  1.6 0.41 0  1.5 0.41 0  1.4 0.41 0  1.3 0.41 0  1.2 0.41 0  1.1 0.41 0  1 0.41 0  0.9 0.41 0  0.8 0.41 0  0.7 0.41 0  0.6 0.41 0  0.5 0.41 0  0.4 0.41 0  0.3 0.41 0  0.2 0.41 0  0.1 0.41 0  0 0.3075 0  0 0.205 0  0 0.1025 0  0.1566987973585577 0.2250001169958213 0  0.1749998830041787 0.2433012026414423 0  0.2250001169958213 0.2433012026414423 0  0.2433012026414423 0.2250001169958213 0  0.2433012026414423 0.1749998830041787 0  0.2250001169958213 0.1566987973585577 0  0.1749998830041787 0.1566987973585577 0  0.1566987973585577 0.1749998830041787 0  0.352033 0.262216 0  1.04579 0.252253 0  1.24065 0.243419 0  0.985775 0.171509 0  1.30324 0.187395 0  0.890988 0.190768 0  1.39085 0.202767 0  0.801464 0.204685 0  1.49904 0.204666 0  0.704267 0.202289 0  1.60238 0.204951 0  0.487789 0.19191 0  1.72935 0.219637 0  1.83335 0.187427 0  2.03359 0.193642 0  0.314663 0.307348 0  0.249039 0.333583 0  2.12147 0.253405 0  2.06373 0.0836837 0  0.0734726 0.267055 0  0.143989 0.0677174 0  0.0613613 0.33781 0  0.299628 0.236829 0  0.527114 0.295386 0  0.262384 0.26549 0  0.275777 0.18341 0  1.74578 0.330928 0  1.84001 0.302448 0  1.64998 0.313838 0  0.648421 0.302367 0  1.54544 0.308508 0  0.755686 0.306156 0  1.42668 0.314809 0  0.870524 0.298596 0  1.22553 0.112785 0  1.05603 0.147372 0  0.969346 0.329867 0  1.32527 0.276284 0  2.02914 0.29511 0  1.88168 0.119486 0  1.79545 0.104842 0  1.35688 0.0892539 0  1.69041 0.105324 0  0.914199 0.09555660000000001 0  1.58234 0.102923 0  0.61843 0.10815 0  1.47999 0.101161 0  0.725217 0.104273 0  0.821727 0.102306 0  1.96725 0.105778 0  0.418624 0.241547 0  0.135226 0.239087 0  1.14921 0.314841 0  0.404508 0.333259 0  0.590155 0.206269 0  2.12554 0.150731 0  1.93166 0.22436 0  0.104689 0.190046 0  0.267856 0.07447529999999999 0  0.269368 0.221581 0  0.434446 0.114927 0  1.0089 0.07933809999999999 0  0.953023 0.246698 0  1.25853 0.33355 0  1.05268 0.340828 0  2.1369 0.067383 0  0.522398 0.112537 0  1.3421 0.348929 0  0.215186 0.289473 0  0.203197 0.335348 0  1.13984 0.190728 0  1.93813 0.330504 0  1.10505 0.0883705 0  0.341988 0.0824728 0  0.253113 0.138035 0  0.291932 0.131907 0  0.203713 0.102439 0  0.150375 0.134668 0  0.151494 0.309119 0  0.354384 0.17896 0  0.06853670000000001 0.100776 0  0.424128 0.180088 0  0.474925 0.0568661 0  2.10843 0.347669 0  2.160735 0.2804525 0  2.160735 0.2292025 0  2.2 0.25625 0  2.079485 0.04184185 0  2.027105 0.04184185 0  2.04286 0 0  0.1767565 0.0338587 0  0.1243755 0.0338587 0  0.157143 0 0  0.08068065000000001 0.373905 0  0.03068065 0.373905 0  0.05 0.41 0  0.03068065 0.322655 0  0 0.35875 0  0.281851 0.3204655 0  0.2745195 0.3717915 0  0.3073315 0.358674 0  0.06741695 0.3024325 0  0.0367363 0.2872775 0  0.3071455 0.2720885 0  0.3258305 0.2495225 0  0.333348 0.284782 0  0.2557115 0.2995365 0  0.2885235 0.286419 0  2.075305 0.2742575 0  2.031365 0.244376 0  2.07753 0.2235235 0  2.01549 0.09473085000000001 0  1.978865 0.052889 0  2.00042 0.14971 0  2.04866 0.13866285 0  0.472869 0.2684665 0  0.4532065 0.2167285 0  0.5074514999999999 0.243648 0  2.16277 0.1778655 0  2.16277 0.1266155 0  2.2 0.15375 0  1.90667 0.171923 0  1.882505 0.2058935 0  1.857515 0.1534565 0  1.885835 0.263404 0  1.83668 0.2449375 0  0.6042925 0.1572095 0  0.647211 0.204279 0  0.6613485 0.1552195 0  0.3595855 0.3203035 0  0.3782705 0.2977375 0  0.155113 0.241194 0  0.1459625 0.2320435 0  0.1646446609406726 0.2353553390593274 0  0.259539 0.179205 0  0.2628885 0.191705 0  0.2482962819455563 0.1870590127797247 0  0.281006 0.2511595 0  1.0209025 0.1594405 0  1.05091 0.1998125 0  1.0157825 0.211881 0  1.264385 0.15009 0  1.23309 0.178102 0  1.271945 0.215407 0  1.291205 0.10101945 0  1.33006 0.13832445 0  0.928528 0.0477783 0  0.876147 0.0477783 0  0.890476 0 0  0.9025935 0.1431623 0  0.9499869999999999 0.1335328 0  0.9383815 0.1811385 0  0.867963 0.0989313 0  0.8563575 0.146537 0  0.8299110000000001 0.051153 0  1.411775 0.04462695 0  1.35939 0.04462695 0  1.414285 0 0  1.373865 0.14601045 0  1.347045 0.195081 0  1.418435 0.09520745 0  1.43542 0.151964 0  1.47333 0.0505805 0  0.7775300000000001 0.051153 0  0.785714 0 0  0.8115954999999999 0.1534955 0  0.8462259999999999 0.1977265 0  0.7734719999999999 0.1032895 0  0.7633405 0.154479 0  0.729275 0.0521365 0  1.52571 0.0505805 0  1.51905 0 0  1.489515 0.1529135 0  1.444945 0.2037165 0  1.531165 0.102042 0  1.54069 0.1537945 0  1.576885 0.0514615 0  1.9804 0.259735 0  1.982625 0.209001 0  1.820005 0.356224 0  1.870005 0.356224 0  1.85 0.41 0  1.78468 0.2610425 0  1.78135 0.203532 0  1.72289 0.370464 0  1.77289 0.370464 0  1.75 0.41 0  1.792895 0.316688 0  1.737565 0.2752825 0  1.62499 0.361919 0  1.67499 0.361919 0  1.65 0.41 0  1.69788 0.322383 0  1.689665 0.2667375 0  1.62618 0.2593945 0  1.665865 0.212294 0  0.6242105 0.3561835 0  0.6742105 0.3561835 0  0.6499999999999999 0.41 0  0.6192880000000001 0.254318 0  0.6763440000000001 0.252328 0  1.52272 0.359254 0  1.57272 0.359254 0  1.55 0.41 0  1.59771 0.311173 0  1.57391 0.2567295 0  1.52224 0.256587 0  1.55071 0.2048085 0  0.727843 0.358078 0  0.7778430000000001 0.358078 0  0.75 0.41 0  0.7020535 0.3042615 0  0.7299765 0.2542225 0  0.778575 0.2554205 0  0.7528655 0.203487 0  1.41334 0.3624045 0  1.46334 0.3624045 0  1.45 0.41 0  1.48606 0.3116585 0  1.46286 0.2597375 0  1.408765 0.258788 0  0.8352619999999999 0.354298 0  0.885262 0.354298 0  0.8500000000000001 0.41 0  0.813105 0.302376 0  0.8359939999999999 0.2516405 0  0.880756 0.244682 0  0.9346730000000001 0.3699335 0  0.984673 0.3699335 0  0.95 0.41 0  0.9199349999999999 0.3142315 0  0.676894 0.0521365 0  0.680952 0 0  0.714742 0.153281 0  0.6718235 0.1062115 0  0.6235005 0.054075 0  1.629265 0.0514615 0  1.62381 0 0  1.59236 0.153937 0  1.636375 0.1041235 0  1.646395 0.1551375 0  1.6833 0.052662 0  1.73568 0.052662 0  1.72857 0 0  1.70988 0.1624805 0  1.74293 0.105083 0  1.7624 0.1622395 0  1.7882 0.052421 0  1.84058 0.052421 0  1.83333 0 0  1.8144 0.1461345 0  1.838565 0.112164 0  1.883695 0.059743 0  1.124605 0.3624205 0  1.174605 0.3624205 0  1.15 0.41 0  1.314255 0.2318395 0  1.28296 0.2598515 0  1.35806 0.2395255 0  1.375975 0.2955465 0  1.92648 0.052889 0  1.938095 0 0  1.924465 0.112632 0  1.949455 0.165069 0  0.352254 0.3716295 0  0.402254 0.3716295 0  0.35 0.41 0  0.513557 0.352693 0  0.563557 0.352693 0  0.55 0.41 0  0.5877675 0.2988765 0  0.5586344999999999 0.2508275 0  0.538972 0.1990895 0  0.452254 0.3716295 0  0.45 0.41 0  0.465811 0.3143225 0  0.411566 0.287403 0  0.3853285 0.2518815 0  0.1199575 0.2145665 0  0.0890808 0.2285505 0  0.1043493 0.253071 0  0.2245195 0.3717915 0  0.25 0.41 0  0.291071 0.03723765 0  0.23869 0.03723765 0  0.261905 0 0  0.265876 0.2435355 0  0.2563345 0.2232905 0  0.2528425 0.245245 0  0.284498 0.229205 0  1.032465 0.11335505 0  0.9973375 0.12542355 0  0.9615494999999999 0.08744735000000001 0  0.9220055 0.218733 0  0.9693989999999999 0.2091035 0  0.9611845 0.2882825 0  0.9117735 0.272647 0  1.229265 0.371775 0  1.279265 0.371775 0  1.25 0.41 0  1.02634 0.375414 0  1.07634 0.375414 0  1.05 0.41 0  1.011013 0.3353475 0  2.11607 0.0336915 0  2.16845 0.0336915 0  2.14762 0 0  2.16845 0.0849415 0  2.2 0.05125 0  2.100315 0.07553335 0  0.5562765000000001 0.159403 0  0.570414 0.1103435 0  0.5050935 0.1522235 0  1.32105 0.3794645 0  1.37105 0.3794645 0  1.35 0.41 0  1.333685 0.3126065 0  1.38439 0.331869 0  0.9994065 0.2494755 0  1.007568 0.29106 0  1.300315 0.3412395 0  1.2919 0.304917 0  2.13122 0.109057 0  2.094635 0.11720735 0  0.2725725 0.2024955 0  0.259684 0.2107905 0  0.2482962819455563 0.2129409872202754 0  0.2877025 0.2101195 0  2.123505 0.202068 0  2.079565 0.1721865 0  1.02826 0.03966905 0  0.9758784999999999 0.03966905 0  0.9952384999999999 0 0  1.049235 0.2965405 0  1.100945 0.3278345 0  1.0975 0.283547 0  0.5711200000000001 0.054075 0  0.5761905 0 0  0.523104 0.0562685 0  1.24959 0.2884845 0  1.20387 0.3241955 0  1.19493 0.27913 0  0.238785 0.2774815 0  0.2321125 0.311528 0  0.226118 0.3344655 0  0.2015985 0.3726739999999999 0  1.144525 0.2527845 0  1.190245 0.2170735 0  1.092815 0.2214905 0  0.2091915 0.3124105 0  0.220093 0.266387 0  0.243692 0.2543955 0  0.2353553390593274 0.2353553390593274 0  0.478422 0.113732 0  0.4611175 0.1534185 0  1.919065 0.370252 0  1.969065 0.370252 0  1.95 0.41 0  1.983635 0.312807 0  2.01457 0.352555 0  1.88907 0.316476 0  1.934895 0.277432 0  1.182685 0.1517565 0  1.097935 0.16905 0  1.128715 0.04418525 0  1.076335 0.04418525 0  1.1 0 0  1.056975 0.08385429999999999 0  1.08054 0.11787125 0  1.122445 0.13954925 0  1.16529 0.10057775 0  0.304922 0.07847404999999999 0  0.328137 0.0412364 0  0.380518 0.0412364 0  0.366667 0 0  0.388217 0.09869990000000001 0  0.426747 0.0574635 0  0.31696 0.1071899 0  0.279894 0.10319115 0  0.2725225 0.134971 0  0.2604845 0.10625515 0  0.228413 0.120237 0  0.2143565 0.129569 0  0.2390565 0.147367 0  1.30701 0.04462695 0  1.30952 0 0  1.241335 0.0563925 0  0.2357845 0.08845715 0  1.188955 0.0563925 0  1.20476 0 0  0.2066185 0.0512195 0  0.173851 0.08507819999999999 0  0.0367363 0.2360275 0  0 0.25625 0  0.264445 0.1607225 0  0.248207 0.1565175 0  0.2353553390593274 0.1646446609406726 0  0.2838545 0.1576585 0  0.130694 0.182523 0  0.1273445 0.195023 0  0.1517037180544437 0.1870590127797247 0  0.127532 0.162357 0  0.153537 0.154834 0  0.0523445 0.197523 0  0
[...]
<PointData  Vectors="u"> 
<DataArray  type="Float64"  Name="u"  NumberOfComponents="3" format="ascii">1.1841467903113000e-15 -3.3340464832688393e-15 0.0000000000000000e+00  0.0000000000000000e+00 0.0000000000000000e+00 0.0000000000000000e+00  0.0000000000000000e+00 0.0000000000000000e+00 0.0000000000000000e+00  8.1563711383264344e-16 0.0000000000000000e+00 0.0000000000000000e+00  0.0000000000000000e+00 0.0000000000000000e+00 0.0000000000000000e+00  0.0000000000000000e+00 0.0000000000000000e+00 0.0000000000000000e+00  0.0000000000000000e+00 0.0000000000000000e+00 0.0000000000000000e+00  0.0000000000000000e+00 0.0000000000000000e+00 0.0000000000000000e+00  0.0000000000000000e+00 0.0000000000000000e+00 0.0000000000000000e+00  0.0000000000000000e+00 6.9872897932617612e-16 0.0000000000000000e+00  0.0000000000000000e+00 1.2457987731614345e-15 0.0000000000000000e+00  0.0000000000000000e+00 -6.4519661901693498e-16 0.0000000000000000e+00  0.0000000000000000e+00 -9.2546698581368634e-16 0.0000000000000000e+00  0.0000000000000000e+00 1.2038241260497632e-15 0.0000000000000000e+00  0.0000000000000000e+00 8.0168299048322670e-16 0.0000000000000000e+00  0.0000000000000000e+00 -7.6330757190783251e-16 0.0000000000000000e+00  0.0000000000000000e+00 0.0000000000000000e+00 0.0000000000000000e+00  0.0000000000000000e+00 0.0000000000000000e+00 0.0000000000000000e+00  0.0000000000000000e+00 -1.2152386088184592e-15 0.0000000000000000e+00  0.0000000000000000e+00 0.0000000000000000e+00 0.0000000000000000e+00  7.0593356226105557e-16 0.0000000000000000e+00 0.0000000000000000e+00  0.0000000000000000e+00 0.0000000000000000e+00 0.0000000000000000e+00  0.0000000000000000e+00 4.6039008851229487e-16 0.0000000000000000e+00  -3.6735919000365708e-16 -6.2547041577600593e-16 0.0000000000000000e+00  3.0912863305235193e-16 0.0000000000000000e+00 0.0000000000000000e+00  0.0000000000000000e+00 -6.3141049471186811e-16 0.0000000000000000e+00  0.0000000000000000e+00 0.0000000000000000e+00 0.0000000000000000e+00  0.0000000000000000e+00 0.0000000000000000e+00 0.0000000000000000e+00  1.1250000001140799e+00 4.2531271077549897e-10 0.0000000000000000e+00  1.5000000000004532e+00 7.0869910477813795e-10 0.0000000000000000e+00  1.1249999998861060e+00 4.2490688806868794e-10 0.0000000000000000e+00  0.0000000000000000e+00 0.0000000000000000e+00 0.0000000000000000e+00  0.0000000000000000e+00 0.0000000000000000e+00 0.0000000000000000e+00  0.0000000000000000e+00 0.0000000000000000e+00 0.0000000000000000e+00  0.0000000000000000e+00 0.0000000000000000e+00 0.0000000000000000e+00  0.0000000000000000e+00 0.0000000000000000e+00 0.0000000000000000e+00  0.0000000000000000e+00 0.0000000000000000e+00 0.0000000000000000e+00  0.0000000000000000e+00 0.0000000000000000e+00 0.0000000000000000e+00  0.0000000000000000e+00 0.0000000000000000e+00 0.0000000000000000e+00  0.0000000000000000e+00 0.0000000000000000e+00 0.0000000000000000e+00  0.0000000000000000e+00 -5.7057965875541549e-16 0.0000000000000000e+00  0.0000000000000000e+00 0.0000000000000000e+00 0.0000000000000000e+00  0.0000000000000000e+00 -3.1472778761536129e-16 0.0000000000000000e+00  0.0000000000000000e+00 0.0000000000000000e+00 0.0000000000000000e+00  0.0000000000000000e+00 -3.2939409806614350e-16 0.0000000000000000e+00  0.0000000000000000e+00 1.5319264078679159e-15 0.0000000000000000e+00  0.0000000000000000e+00 0.0000000000000000e+00 0.0000000000000000e+00  0.0000000000000000e+00 0.0000000000000000e+00 0.0000000000000000e+00  0.0000000000000000e+00 0.0000000000000000e+00 0.0000000000000000e+00  0.0000000000000000e+00 1.9457062798081531e-15 0.0000000000000000e+00  0.0000000000000000e+00 -1.0170785672825655e-15 0.0000000000000000e+00  0.0000000000000000e+00 0.0000000000000000e+00 0.0000000000000000e+00  1.1249999999999996e+00 0.0000000000000000e+00 0.0000000000000000e+00  1.4999999999999998e+00 0.0000000000000000e+00 0.0000000000000000e+00  1.1250000000000022e+00 5.7510151095461896e-16 0.0000000000000000e+00  0.0000000000000000e+00 0.0000000000000000e+00 0.0000000000000000e+00  5.2957154464933839e-15 6.6194495677813780e-16 0.0000000000000000e+00  0.0000000000000000e+00 0.0000000000000000e+00 0.0000000000000000e+00  0.0000000000000000e+00 0.0000000000000000e+00 0.0000000000000000e+00  0.0000000000000000e+00 0.0000000000000000e+00 0.0000000000000000e+00  -1.6697097192080881e-15 0.0000000000000000e+00 0.0000000000000000e+00  0.0000000000000000e+00 0.0000000000000000e+00 0.0000000000000000e+00  6.1151949008908588e-16 0.0000000000000000e+00 0.0000000000000000e+00  1.2553414288541054e+00 -3.3093577670615104e-01 0.0000000000000000e+00  1.4202852239653920e+00 5.0546061987724537e-05 0.0000000000000000e+00  1.4473169672327781e+00 9.6237103592478523e-07 0.0000000000000000e+00  1.4599984333600000e+00 1.0272308711671687e-04 0.0000000000000000e+00  1.4889370634441930e+00 -8.4987679607723893e-07 0.0000000000000000e+00  1.4928312782160986e+00 2.5284192624106981e-04 0.0000000000000000e+00  1.4998219907953081e+00 -1.0989458324106949e-06 0.0000000000000000e+00  1.5000935681560166e+00 4.1383787334928538e-04 0.0000000000000000e+00  1.4999960160446322e+00 -5.4883769857996272e-07 0.0000000000000000e+00  1.4999329941372390e+00 1.2943274455730407e-04 0.0000000000000000e+00  1.4999999143204188e+00 -1.9087575891446012e-07 0.0000000000000000e+00  1.4585714895770083e+00 -6.6945680814335887e-03 0.0000000000000000e+00  1.4923530617967582e+00 -2.9953043413420457e-08 0.0000000000000000e+00  1.4889776215699173e+00 -4.7524221847644257e-10 0.0000000000000000e+00  1.4953954494815744e+00 2.0590486574369971e-09 0.0000000000000000e+00  1.4307149195339983e+00 -4.3012857617643996e-01 0.0000000000000000e+00  1.7576483953581703e+00 -2.7567086055310713e-01 0.0000000000000000e+00  1.4163696358436000e+00 9.2115952982186255e-10 0.0000000000000000e+00  9.7468252418281887e-01 6.6589216160606356e-10 0.0000000000000000e+00  1.2759130556915375e+00 5.6602997450305481e-01 0.0000000000000000e+00  1.5540686131945090e+00 -2.9552789778430388e-01 0.0000000000000000e+00  1.0832375466939332e+00 2.9532992111055012e-01 0.0000000000000000e+00  8.2779826575751236e-01 -4.1544665291445043e-01 0.0000000000000000e+00  1.2147897235648188e+00 -2.2990317769408214e-02 0.0000000000000000e+00  1.1324539143680121e+00 -6.0960685984700502e-01 0.0000000000000000e+00  3.3969252452149828e-01 2.2176413176478899e-01 0.0000000000000000e+00  9.3398472846044278e-01 -6.1322398558835647e-09 0.0000000000000000e+00  1.1610548658585760e+00 7.7196660352213745e-10 0.0000000000000000e+00  1.0771906343345561e+00 -4.7705097193888406e-08 0.0000000000000000e+00  1.1613919919891873e+00 -1.0911838237460554e-03 0.0000000000000000e+00  1.1175883346420739e+00 -1.8623989546820222e-07 0.0000000000000000e+00  1.1341907733992744e+00 3.5178603567827271e-04 0.0000000000000000e+00  1.0696135054025115e+00 -4.7427589197491714e-07 0.0000000000000000e+00  1.1870868734187634e+00 2.1791161569795439e-04 0.0000000000000000e+00  1.1964791572980147e+00 9.3444540782161812e-07 0.0000000000000000e+00  1.3814820387822360e+00 4.0118236163174958e-05 0.0000000000000000e+00  9.4340392025907716e-01 5.1859644611249516e-05 0.0000000000000000e+00  1.3186303331666511e+00 -9.1529749295783254e-07 0.0000000000000000e+00  1.2101792215094525e+00 1.3753289692926233e-09 0.0000000000000000e+00  1.2389895035157394e+00 2.0979049233008567e-09 0.0000000000000000e+00  1.1419408141796696e+00 -2.4578366968011677e-09 0.0000000000000000e+00  1.0218133087300361e+00 -5.9613728065390067e-07 0.0000000000000000e+00  1.1453787453162110e+00 -2.9933062204292502e-08 0.0000000000000000e+00  1.0726181552048912e+00 9.3597740425687700e-05 0.0000000000000000e+00  1.1280886073602994e+00 -1.2642424075675807e-07 0.0000000000000000e+00  1.1659101184379344e+00 8.2201180541712881e-04 0.0000000000000000e+00  1.1151379919702900e+00 -3.4462523778815989e-07 0.0000000000000000e+00  1.1384631197461681e+00 1.3682231787657436e-04 0.0000000000000000e+00  1.1239174211039262e+00 1.6624775031061543e-04 0.0000000000000000e+00  1.1486018367872404e+00 1.8151726570678289e-09 0.0000000000000000e+00  1.3636979515555692e+00 -1.1547464162061111e-01 0.0000000000000000e+00  6.0263493670468338e-01 5.5020686362306048e-01 0.0000000000000000e+00  1.0693596048948100e+00 5.2127633536213417e-06 0.0000000000000000e+00  1.0370644037130636e+00 -1.1674871619106825e-01 0.0000000000000000e+00  1.4970558077285572e+00 -3.4660186158853730e-03 0.0000000000000000e+00  1.3948795591994025e+00 8.6486683320208892e-10 0.0000000000000000e+00  1.4866219050987608e+00 3.2321796652772697e-09 0.0000000000000000e+00  6.3069036792400002e-01 -1.0230426522646854e-01 0.0000000000000000e+00  1.5410492408350902e+00 3.2905850270117104e-01 0.0000000000000000e+00  3.1511787151394893e-01 -2.9136740954143181e-01 0.0000000000000000e+00  1.2094559797883664e+00 7.7122057731703608e-02 0.0000000000000000e+00  9.3641662419028016e-01 2.8548108376578574e-05 0.0000000000000000e+00  1.4378890195038934e+00 1.4667613098306252e-04 0.0000000000000000e+00  9.1017083648296004e-01 -2.0140493443135240e-07 0.0000000000000000e+00  8.4147014041066148e-01 1.4194184965909319e-05 0.0000000000000000e+00  8.2402955342613193e-01 2.7440079170229335e-10 0.0000000000000000e+00  1.1952897002969751e+00 1.2385032079456159e-02 0.0000000000000000e+00  7.6060015423069238e-01 -3.6101527718049780e-07 0.0000000000000000e+00  1.7061549072416806e+00 -1.9356811276089655e-01 0.0000000000000000e+00  1.8969655869119277e+00 -1.1191153497838254e-02 0.0000000000000000e+00  1.4927306816201209e+00 1.4489084718248711e-05 0.0000000000000000e+00  9.3778985909583812e-01 1.3871798585435915e-09 0.0000000000000000e+00  1.0144956118925246e+00 9.6722638284683256e-06 0.0000000000000000e+00  1.1819033455901333e+00 2.5265132121870992e-01 0.0000000000000000e+00  1.0029644303291809e+00 5.5184231678437368e-01 0.0000000000000000e+00  1.1440737001593888e+00 5.4478365921790650e-01 0.0000000000000000e+00  1.7633545581573460e+00 3.6694538570839381e-02 0.0000000000000000e+00  1.0970529089010925e+00 -5.7144656449977427e-01 0.0000000000000000e+00  1.7786664822091056e+00 4.6705680031417751e-01 0.0000000000000000e+00  1.1064025586550799e+00 1.0220131166431899e-01 0.0000000000000000e+00  1.2384259532686999e+00 -4.2035561374703756e-01 0.0000000000000000e+00  1.3631454509453713e+00 1.8271950283811293e-02 0.0000000000000000e+00  7.3822292316466376e-01 1.7211371399676035e-02 0.0000000000000000e+00  7.7348803413776934e-01 2.8532004575175378e-10 0.0000000000000000e+00  1.2967966770478265e+00 5.9863903112092613e-10 0.0000000000000000e+00  1.4790924089332826e+00 7.7326233479391926e-10 0.0000000000000000e+00  1.4062499998861266e+00 6.2975962961673694e-10 0.0000000000000000e+00  5.4983050943572587e-01 1.7571187090858851e-10 0.0000000000000000e+00  5.4983050994350868e-01 2.7542358968376185e-10 0.0000000000000000e+00  0.0000000000000000e+00 4.1610270136832243e-16 0.0000000000000000e+00  1.1550880526608409e+00 -4.9434549621500602e-02 0.0000000000000000e+00  9.3158948134071329e-01 -1.0755385880657652e-01 0.0000000000000000e+00  0.0000000000000000e+00 -9.3919541959312881e-16 0.0000000000000000e+00  7.4095633417488516e-01 1.1448358007990386e-01 0.0000000000000000e+00  5.2803060942337743e-01 5.4745949632339301e-02 0.0000000000000000e+00  0.0000000000000000e+00 -9.1368850887582601e-16 0.0000000000000000e+00  1.0641815153013332e+00 2.3097103051004533e-01 0.0000000000000000e+00  6.5624999999999878e-01 0.0000000000000000e+00 0.0000000000000000e+00  1.6028716100554659e+00 -4.1496454930948401e-01 0.0000000000000000e+00  1.0921337321824249e+00 -1.0846781823214652e-01 0.0000000000000000e+00  1.1425857853223274e+00 -1.7103621773631456e-01 0.0000000000000000e+00  1.3087464200615384e+00 4.9606188025615322e-01 0.0000000000000000e+00  1.2803665686121894e+00 3.5884480074442182e-01 0.0000000000000000e+00  1.2525903332130193e+00 -5.3290952047719864e-01 0.0000000000000000e+00  1.1065245472564211e+00 -3.9493662297697207e-01 0.0000000000000000e+00  1.3263059218497935e+00 -4.1999645168913302e-01 0.0000000000000000e+00  1.6789764234869888e+00 -4.9617929649749393e-01 0.0000000000000000e+00  1.4163789359915542e+00 -5.7581799037935577e-01 0.0000000000000000e+00  1.3287947175440620e+00 1.1659954072627007e-09 0.0000000000000000e+00  1.4446590339238583e+00 1.9501231860452299e-09 0.0000000000000000e+00  1.4877530020390977e+00 1.4556145032117073e-09 0.0000000000000000e+00  1.0659981419654281e+00 1.1685774915389734e-09 0.0000000000000000e+00  6.7414314355440552e-01 5.8854077126294953e-10 0.0000000000000000e+00  1.3908869461588318e+00 2.2102387204706233e-09 0.0000000000000000e+00  1.3429285863343798e+00 1.4725126772253821e-09 0.0000000000000000e+00  1.3493184617709739e+00 -6.2841592866234655e-02 0.0000000000000000e+00  1.4284612337491633e+00 -4.1872676722273794e-02 0.0000000000000000e+00  1.4327049957588327e+00 -2.9407620499106217e-02 0.0000000000000000e+00  1.4737198898342809e+00 7.5983258147033243e-10 0.0000000000000000e+00  1.2806973290206414e+00 5.7906414249730066e-10 0.0000000000000000e+00  1.4062500001147704e+00 6.2962779453263926e-10 0.0000000000000000e+00  1.4609486776822278e+00 3.0397511245562155e-09 0.0000000000000000e+00  1.4999715046815316e+00 2.6618007535020816e-09 0.0000000000000000e+00  1.4051731477737228e+00 1.5358270878708031e-09 0.0000000000000000e+00  1.3782500664874173e+00 2.5063203161784345e-09 0.0000000000000000e+00  1.4430694598035425e+00 1.9902265585292534e-11 0.0000000000000000e+00  1.4174461967228211e+00 2.2248773099255601e-04 0.0000000000000000e+00  1.4997010381740510e+00 -8.6134297114628066e-04 0.0000000000000000e+00  1.4119002289392528e+00 3.8323925171135759e-05 0.0000000000000000e+00  1.2413376647936971e+00 -2.4811174807648670e-01 0.0000000000000000e+00  1.2788401178884128e+00 -2.4227842771871519e-01 0.0000000000000000e+00  4.0813243063778143e-01 3.6515949708348783e-01 0.0000000000000000e+00  3.1696520388984489e-01 3.7908201571940364e-01 0.0000000000000000e+00  0.0000000000000000e+00 0.0000000000000000e+00 0.0000000000000000e+00  1.7784337840710898e-01 2.3205166516933939e-01 0.0000000000000000e+00  1.1246285524209271e-01 9.4592542042586006e-02 0.0000000000000000e+00  0.0000000000000000e+00 0.0000000000000000e+00 0.0000000000000000e+00  9.0883600294527900e-01 -5.6423339184466625e-01 0.0000000000000000e+00  1.4259392525462629e+00 6.6082319979322710e-05 0.0000000000000000e+00  1.4990422027960493e+00 5.2812283469253464e-05 0.0000000000000000e+00  1.4983072546571434e+00 8.0679412667783006e-05 0.0000000000000000e+00  1.3923805521111516e+00 -4.3886323348124427e-08 0.0000000000000000e+00  1.4741755972058126e+00 1.5010103189463023e-06 0.0000000000000000e+00  1.4961344320022643e+00 -1.8300575910215958e-07 0.0000000000000000e+00  1.1140866912901235e+00 -5.3613128697054880e-07 0.0000000000000000e+00  1.3413208176113143e+00 -9.4062333901932580e-07 0.0000000000000000e+00  6.1780098637335101e-01 2.5499710583340657e-05 0.0000000000000000e+00  6.1786280446869479e-01 3.6606700229025149e-05 0.0000000000000000e+00  0.0000000000000000e+00 -8.3679972574210291e-16 0.0000000000000000e+00  1.3636521228136866e+00 1.7884711355997633e-04 0.0000000000000000e+00  1.3177837991217773e+00 1.1218477010946794e-04 0.0000000000000000e+00  1.4797249616264900e+00 1.6758346828229739e-04 0.0000000000000000e+00  1.0986616220454268e+00 1.3246226860098661e-04 0.0000000000000000e+00  1.3782179057986148e+00 2.4443845822886390e-04 0.0000000000000000e+00  6.5541456159214706e-01 4.9532537772100444e-05 0.0000000000000000e+00  5.8199168112588573e-01 -1.5428019614300756e-07 0.0000000000000000e+00  5.8199131451710295e-01 -1.9825856951726685e-07 0.0000000000000000e+00  0.0000000000000000e+00 -3.5452803043825278e-16 0.0000000000000000e+00  1.3757957037220090e+00 -9.8313243562705530e-07 0.0000000000000000e+00  1.4964881009216446e+00 -1.1659478322569011e-06 0.0000000000000000e+00  1.0697408507235386e+00 -4.9741517566040902e-07 0.0000000000000000e+00  1.3996015250846781e+00 -7.6718518582263997e-07 0.0000000000000000e+00  6.4888545956666654e-01 -1.1854048906496777e-07 0.0000000000000000e+00  6.5550835587293388e-01 4.7867872920732369e-05 0.0000000000000000e+00  0.0000000000000000e+00 5.0942311502817785e-16 0.0000000000000000e+00  1.4056152047063413e+00 3.0577094115981005e-04 0.0000000000000000e+00  1.4981902706626633e+00 3.4134891809824863e-04 0.0000000000000000e+00  1.1312254202710481e+00 1.6926471837465175e-04 0.0000000000000000e+00  1.4093184857211170e+00 3.0754635812828621e-04 0.0000000000000000e+00  6.6635745222769671e-01 3.3659903008462362e-05 0.0000000000000000e+00  6.4888563397008292e-01 -7.2264393347527335e-08 0.0000000000000000e+00  -4.4266104842965832e-16 -5.3541717871651625e-16 0.0000000000000000e+00  1.4031643810194696e+00 -5.1612665639908947e-07 0.0000000000000000e+00  1.4999411885343075e+00 -8.3016589651765091e-07 0.0000000000000000e+00  1.1216410419480061e+00 -2.1712968154581699e-07 0.0000000000000000e+00  1.4064125804085037e+00 -3.2358579615672587e-07 0.0000000000000000e+00  6.5856964753068969e-01 -4.2011856897428602e-08 0.0000000000000000e+00  1.3930664982726222e+00 2.4756032309343887e-09 0.0000000000000000e+00  1.4994286256475327e+00 2.8213611873115009e-09 0.0000000000000000e+00  6.8374663924861034e-01 2.6058773010723150e-10 0.0000000000000000e+00  6.8374663989508166e-01 7.7745354907480017e-10 0.0000000000000000e+00  0.0000000000000000e+00 0.0000000000000000e+00 0.0000000000000000e+00  1.3878966624062725e+00 -6.9103107086779337e-09 0.0000000000000000e+00  1.4999230806820634e+00 -9.7738769882179744e-09 0.0000000000000000e+00  5.2278398683774396e-01 -2.5363250322356898e-09 0.0000000000000000e+00  5.2278398295482265e-01 -5.5744255647243102e-10 0.0000000000000000e+00  0.0000000000000000e+00 0.0000000000000000e+00 0.0000000000000000e+00  1.0547575445163460e+00 -2.0018661734707079e-09 0.0000000000000000e+00  1.3236896004980927e+00 -1.8500936489919788e-08 0.0000000000000000e+00  6.2110988375788301e-01 -1.9782740629408702e-08 0.0000000000000000e+00  6.2110985596262358e-01 -9.2956361313974541e-09 0.0000000000000000e+00  0.0000000000000000e+00 0.0000000000000000e+00 0.0000000000000000e+00  1.0081938731870856e+00 -1.9362454705302561e-08 0.0000000000000000e+00  1.3639553206082049e+00 -4.6456261502246535e-08 0.0000000000000000e+00  1.3943928530876109e+00 -1.2016900863928824e-07 0.0000000000000000e+00  1.4981010472402958e+00 -8.3731522987831804e-08 0.0000000000000000e+00  6.8401215194786003e-01 -7.4775495575778921e-04 0.0000000000000000e+00  6.8336830114105840e-01 -2.2428911434162693e-05 0.0000000000000000e+00  0.0000000000000000e+00 0.0000000000000000e+00 0.0000000000000000e+00  1.4127533617181989e+00 -3.2764387073611085e-03 0.0000000000000000e+00  1.4198451323480690e+00 -4.3455605767054700e-04 0.0000000000000000e+00  6.5070943155786187e-01 -7.4476079029681245e-08 0.0000000000000000e+00  6.5070932841401552e-01 -4.2947286581844758e-08 0.0000000000000000e+00  0.0000000000000000e+00 0.0000000000000000e+00 0.0000000000000000e+00  1.0976429600511055e+00 -9.9046480586401670e-08 0.0000000000000000e+00  1.4044876270938129e+00 -2.2733864948195030e-07 0.0000000000000000e+00  1.4050132119901173e+00 -3.8666432181944524e-07 0.0000000000000000e+00  1.4999986905112894e+00 -3.3711367156650597e-07 0.0000000000000000e+00  6.6287641372700645e-01 1.5038356164609736e-04 0.0000000000000000e+00  6.6309242986125005e-01 1.4092699842740064e-04 0.0000000000000000e+00  0.0000000000000000e+00 0.0000000000000000e+00 0.0000000000000000e+00  1.1476966357620191e+00 1.2148752161567856e-04 0.0000000000000000e+00  1.4132966522007950e+00 3.2601208635011904e-04 0.0000000000000000e+00  1.4090390588035722e+00 4.4268573834259638e-04 0.0000000000000000e+00  1.5000888951211229e+00 3.8998423669762196e-04 0.0000000000000000e+00  6.1566360143957422e-01 -1.7010683831702643e-07 0.0000000000000000e+00  6.1566333666262607e-01 -1.1670263502655309e-07 0.0000000000000000e+00  0.0000000000000000e+00 0.0000000000000000e+00 0.0000000000000000e+00  1.0939551318316030e+00 -3.1487433744128015e-07 0.0000000000000000e+00  1.3930571092647266e+00 -6.2940548670383796e-