<?xml version="1.0"?>
<VTKFile type="UnstructuredGrid"  version="0.1"  >
<UnstructuredGrid>
<Piece  NumberOfPoints="525" NumberOfCells="924">
<Points>
<DataArray  type="Float64"  NumberOfComponents="3"  format="ascii">0 0 0  2.2 0 0  2.2 0.41 0  0 0.41 0  0.15 0.2 0  0.25 0.2 0  0.2 0.15 0  0.2 0.25 0  0.104762 0 0  0.209524 0 0  0.314286 0 0  0.419048 0 0  0.52381 0 0  0.628571 0 0  0.733333 0 0  0.838095 0 0  0.9428569999999999 0 0  1.04762 0 0  1.15238 0 0  1.25714 0 0  1.3619 0 0  1.46667 0 0  1.57143 0 0  1.67619 0 0  1.78095 0 0  1.88571 0 0  1.99048 0 0  2.09524 0 0  2.2 0.1025 0  2.2 0.205 0  2.2 0.3075 0  2.1 0.41 0  2 0.41 0  1.9 0.41 0  1.8 0.41 0  1.7 0.41 0  1.6 0.41 0  1.5 0.41 0  1.4 0.41 0  1.3 0.41 0  1.2 0.41 0  1.1 0.41 0  1 0.41 0  0.9 0.41 0  0.8 0.41 0  0.7 0.41 0  0.6 0.41 0  0.5 0.41 0  0.4 0.41 0  0.3 0.41 0  0.2 0.41 0  0.1 0.41 0  0 0.3075 0  0 0.205 0  0 0.1025 0  0.1566987973585577 0.2250001169958213 0  0.1749998830041787 0.2433012026414423 0  0.2250001169958213 0.2433012026414423 0  0.2433012026414423 0.2250001169958213 0  0.2433012026414423 0.1749998830041787 0  0.2250001169958213 0.1566987973585577 0  0.1749998830041787 0.1566987973585577 0  0.1566987973585577 0.1749998830041787 0  0.352033 0.262216 0  1.04579 0.252253 0  1.24065 0.243419 0  0.985775 0.171509 0  1.30324 0.187395 0  0.890988 0.190768 0  1.39085 0.202767 0  0.801464 0.204685 0  1.49904 0.204666 0  0.704267 0.202289 0  1.60238 0.204951 0  0.487789 0.19191 0  1.72935 0.219637 0  1.83335 0.187427 0  2.03359 0.193642 0  0.314663 0.307348 0  0.249039 0.333583 0  2.12147 0.253405 0  2.06373 0.0836837 0  0.0734726 0.267055 0  0.143989 0.0677174 0  0.0613613 0.33781 0  0.299628 0.236829 0  0.527114 0.295386 0  0.262384 0.26549 0  0.275777 0.18341 0  1.74578 0.330928 0  1.84001 0.302448 0  1.64998 0.313838 0  0.648421 0.302367 0  1.54544 0.308508 0  0.755686 0.306156 0  1.42668 0.314809 0  0.870524 0.298596 0  1.22553 0.112785 0  1.05603 0.147372 0  0.969346 0.329867 0  1.32527 0.276284 0  2.02914 0.29511 0  1.88168 0.119486 0  1.79545 0.104842 0  1.35688 0.0892539 0  1.69041 0.105324 0  0.914199 0.09555660000000001 0  1.58234 0.102923 0  0.61843 0.10815 0  1.47999 0.101161 0  0.725217 0.104273 0  0.821727 0.102306 0  1.96725 0.105778 0  0.418624 0.241547 0  0.135226 0.239087 0  1.14921 0.314841 0  0.404508 0.333259 0  0.590155 0.206269 0  2.12554 0.150731 0  1.93166 0.22436 0  0.104689 0.190046 0  0.267856 0.07447529999999999 0  0.269368 0.221581 0  0.434446 0.114927 0  1.0089 0.07933809999999999 0  0.953023 0.246698 0  1.25853 0.33355 0  1.05268 0.340828 0  2.1369 0.067383 0  0.522398 0.112537 0  1.3421 0.348929 0  0.215186 0.289473 0  0.203197 0.335348 0  1.13984 0.190728 0  1.93813 0.330504 0  1.10505 0.0883705 0  0.341988 0.0824728 0  0.253113 0.138035 0  0.291932 0.131907 0  0.203713 0.102439 0  0.150375 0.134668 0  0.151494 0.309119 0  0.354384 0.17896 0  0.06853670000000001 0.100776 0  0.424128 0.180088 0  0.474925 0.0568661 0  2.10843 0.347669 0  2.160735 0.2804525 0  2.160735 0.2292025 0  2.2 0.25625 0  2.079485 0.04184185 0  2.027105 0.04184185 0  2.04286 0 0  0.1767565 0.0338587 0  0.1243755 0.0338587 0  0.157143 0 0  0.08068065000000001 0.373905 0  0.03068065 0.373905 0  0.05 0.41 0  0.03068065 0.322655 0  0 0.35875 0  0.281851 0.3204655 0  0.2745195 0.3717915 0  0.3073315 0.358674 0  0.06741695 0.3024325 0  0.0367363 0.2872775 0  0.3071455 0.2720885 0  0.3258305 0.2495225 0  0.333348 0.284782 0  0.2557115 0.2995365 0  0.2885235 0.286419 0  2.075305 0.2742575 0  2.031365 0.244376 0  2.07753 0.2235235 0  2.01549 0.09473085000000001 0  1.978865 0.052889 0  2.00042 0.14971 0  2.04866 0.13866285 0  0.472869 0.2684665 0  0.4532065 0.2167285 0  0.5074514999999999 0.243648 0  2.16277 0.1778655 0  2.16277 0.1266155 0  2.2 0.15375 0  1.90667 0.171923 0  1.882505 0.2058935 0  1.857515 0.1534565 0  1.885835 0.263404 0  1.83668 0.2449375 0  0.6042925 0.1572095 0  0.647211 0.204279 0  0.6613485 0.1552195 0  0.3595855 0.3203035 0  0.3782705 0.2977375 0  0.155113 0.241194 0  0.1459625 0.2320435 0  0.1646446609406726 0.2353553390593274 0  0.259539 0.179205 0  0.2628885 0.191705 0  0.2482962819455563 0.1870590127797247 0  0.281006 0.2511595 0  1.0209025 0.1594405 0  1.05091 0.1998125 0  1.0157825 0.211881 0  1.264385 0.15009 0  1.23309 0.178102 0  1.271945 0.215407 0  1.291205 0.10101945 0  1.33006 0.13832445 0  0.928528 0.0477783 0  0.876147 0.0477783 0  0.890476 0 0  0.9025935 0.1431623 0  0.9499869999999999 0.1335328 0  0.9383815 0.1811385 0  0.867963 0.0989313 0  0.8563575 0.146537 0  0.8299110000000001 0.051153 0  1.411775 0.04462695 0  1.35939 0.04462695 0  1.414285 0 0  1.373865 0.14601045 0  1.347045 0.195081 0  1.418435 0.09520745 0  1.43542 0.151964 0  1.47333 0.0505805 0  0.7775300000000001 0.051153 0  0.785714 0 0  0.8115954999999999 0.1534955 0  0.8462259999999999 0.1977265 0  0.7734719999999999 0.1032895 0  0.7633405 0.154479 0  0.729275 0.0521365 0  1.52571 0.0505805 0  1.51905 0 0  1.489515 0.1529135 0  1.444945 0.2037165 0  1.531165 0.102042 0  1.54069 0.1537945 0  1.576885 0.0514615 0  1.9804 0.259735 0  1.982625 0.209001 0  1.820005 0.356224 0  1.870005 0.356224 0  1.85 0.41 0  1.78468 0.2610425 0  1.78135 0.203532 0  1.72289 0.370464 0  1.77289 0.370464 0  1.75 0.41 0  1.792895 0.316688 0  1.737565 0.2752825 0  1.62499 0.361919 0  1.67499 0.361919 0  1.65 0.41 0  1.69788 0.322383 0  1.689665 0.2667375 0  1.62618 0.2593945 0  1.665865 0.212294 0  0.6242105 0.3561835 0  0.6742105 0.3561835 0  0.6499999999999999 0.41 0  0.6192880000000001 0.254318 0  0.6763440000000001 0.252328 0  1.52272 0.359254 0  1.57272 0.359254 0  1.55 0.41 0  1.59771 0.311173 0  1.57391 0.2567295 0  1.52224 0.256587 0  1.55071 0.2048085 0  0.727843 0.358078 0  0.7778430000000001 0.358078 0  0.75 0.41 0  0.7020535 0.3042615 0  0.7299765 0.2542225 0  0.778575 0.2554205 0  0.7528655 0.203487 0  1.41334 0.3624045 0  1.46334 0.3624045 0  1.45 0.41 0  1.48606 0.3116585 0  1.46286 0.2597375 0  1.408765 0.258788 0  0.8352619999999999 0.354298 0  0.885262 0.354298 0  0.8500000000000001 0.41 0  0.813105 0.302376 0  0.8359939999999999 0.2516405 0  0.880756 0.244682 0  0.9346730000000001 0.3699335 0  0.984673 0.3699335 0  0.95 0.41 0  0.9199349999999999 0.3142315 0  0.676894 0.0521365 0  0.680952 0 0  0.714742 0.153281 0  0.6718235 0.1062115 0  0.6235005 0.054075 0  1.629265 0.0514615 0  1.62381 0 0  1.59236 0.153937 0  1.636375 0.1041235 0  1.646395 0.1551375 0  1.6833 0.052662 0  1.73568 0.052662 0  1.72857 0 0  1.70988 0.1624805 0  1.74293 0.105083 0  1.7624 0.1622395 0  1.7882 0.052421 0  1.84058 0.052421 0  1.83333 0 0  1.8144 0.1461345 0  1.838565 0.112164 0  1.883695 0.059743 0  1.124605 0.3624205 0  1.174605 0.3624205 0  1.15 0.41 0  1.314255 0.2318395 0  1.28296 0.2598515 0  1.35806 0.2395255 0  1.375975 0.2955465 0  1.92648 0.052889 0  1.938095 0 0  1.924465 0.112632 0  1.949455 0.165069 0  0.352254 0.3716295 0  0.402254 0.3716295 0  0.35 0.41 0  0.513557 0.352693 0  0.563557 0.352693 0  0.55 0.41 0  0.5877675 0.2988765 0  0.5586344999999999 0.2508275 0  0.538972 0.1990895 0  0.452254 0.3716295 0  0.45 0.41 0  0.465811 0.3143225 0  0.411566 0.287403 0  0.3853285 0.2518815 0  0.1199575 0.2145665 0  0.0890808 0.2285505 0  0.1043493 0.253071 0  0.2245195 0.3717915 0  0.25 0.41 0  0.291071 0.03723765 0  0.23869 0.03723765 0  0.261905 0 0  0.265876 0.2435355 0  0.2563345 0.2232905 0  0.2528425 0.245245 0  0.284498 0.229205 0  1.032465 0.11335505 0  0.9973375 0.12542355 0  0.9615494999999999 0.08744735000000001 0  0.9220055 0.218733 0  0.9693989999999999 0.2091035 0  0.9611845 0.2882825 0  0.9117735 0.272647 0  1.229265 0.371775 0  1.279265 0.371775 0  1.25 0.41 0  1.02634 0.375414 0  1.07634 0.375414 0  1.05 0.41 0  1.011013 0.3353475 0  2.11607 0.0336915 0  2.16845 0.0336915 0  2.14762 0 0  2.16845 0.0849415 0  2.2 0.05125 0  2.100315 0.07553335 0  0.5562765000000001 0.159403 0  0.570414 0.1103435 0  0.5050935 0.1522235 0  1.32105 0.3794645 0  1.37105 0.3794645 0  1.35 0.41 0  1.333685 0.3126065 0  1.38439 0.331869 0  0.9994065 0.2494755 0  1.007568 0.29106 0  1.300315 0.3412395 0  1.2919 0.304917 0  2.13122 0.109057 0  2.094635 0.11720735 0  0.2725725 0.2024955 0  0.259684 0.2107905 0  0.2482962819455563 0.2129409872202754 0  0.2877025 0.2101195 0  2.123505 0.202068 0  2.079565 0.1721865 0  1.02826 0.03966905 0  0.9758784999999999 0.03966905 0  0.9952384999999999 0 0  1.049235 0.2965405 0  1.100945 0.3278345 0  1.0975 0.283547 0  0.5711200000000001 0.054075 0  0.5761905 0 0  0.523104 0.0562685 0  1.24959 0.2884845 0  1.20387 0.3241955 0  1.19493 0.27913 0  0.238785 0.2774815 0  0.2321125 0.311528 0  0.226118 0.3344655 0  0.2015985 0.3726739999999999 0  1.144525 0.2527845 0  1.190245 0.2170735 0  1.092815 0.2214905 0  0.2091915 0.3124105 0  0.220093 0.266387 0  0.243692 0.2543955 0  0.2353553390593274 0.2353553390593274 0  0.478422 0.113732 0  0.4611175 0.1534185 0  1.919065 0.370252 0  1.969065 0.370252 0  1.95 0.41 0  1.983635 0.312807 0  2.01457 0.352555 0  1.88907 0.316476 0  1.934895 0.277432 0  1.182685 0.1517565 0  1.097935 0.16905 0  1.128715 0.04418525 0  1.076335 0.04418525 0  1.1 0 0  1.056975 0.08385429999999999 0  1.08054 0.11787125 0  1.122445 0.13954925 0  1.16529 0.10057775 0  0.304922 0.07847404999999999 0  0.328137 0.0412364 0  0.380518 0.0412364 0  0.366667 0 0  0.388217 0.09869990000000001 0  0.426747 0.0574635 0  0.31696 0.1071899 0  0.279894 0.10319115 0  0.2725225 0.134971 0  0.2604845 0.10625515 0  0.228413 0.120237 0  0.2143565 0.129569 0  0.2390565 0.147367 0  1.30701 0.04462695 0  1.30952 0 0  1.241335 0.0563925 0  0.2357845 0.08845715 0  1.188955 0.0563925 0  1.20476 0 0  0.2066185 0.0512195 0  0.173851 0.08507819999999999 0  0.0367363 0.2360275 0  0 0.25625 0  0.264445 0.1607225 0  0.248207 0.1565175 0  0.2353553390593274 0.1646446609406726 0  0.2838545 0.1576585 0  0.130694 0.182523 0  0.1273445 0.195023 0  0.1517037180544437 0.1870590127797247 0  0.127532 0.162357 0  0.153537 0.154834 0  0.0523445 0.197523 0  0
[...]
<PointData  Vectors="u"> 
<DataArray  type="Float64"  Name="u"  NumberOfComponents="3" format="ascii">4.4828323393814470e-15 -1.3875164188320865e-15 0.0000000000000000e+00  0.0000000000000000e+00 0.0000000000000000e+00 0.0000000000000000e+00  0.0000000000000000e+00 0.0000000000000000e+00 0.0000000000000000e+00  0.0000000000000000e+00 0.0000000000000000e+00 0.0000000000000000e+00  0.0000000000000000e+00 0.0000000000000000e+00 0.0000000000000000e+00  0.0000000000000000e+00 0.0000000000000000e+00 0.0000000000000000e+00  0.0000000000000000e+00 -3.1127704843661627e-16 0.0000000000000000e+00  0.0000000000000000e+00 0.0000000000000000e+00 0.0000000000000000e+00  0.0000000000000000e+00 -3.3681027780786272e-16 0.0000000000000000e+00  0.0000000000000000e+00 -1.6749810934621386e-15 0.0000000000000000e+00  0.0000000000000000e+00 -7.5600776230196292e-16 0.0000000000000000e+00  0.0000000000000000e+00 0.0000000000000000e+00 0.0000000000000000e+00  0.0000000000000000e+00 5.6256948228368466e-16 0.0000000000000000e+00  0.0000000000000000e+00 4.2773256268348439e-16 0.0000000000000000e+00  0.0000000000000000e+00 5.3843500644456962e-16 0.0000000000000000e+00  0.0000000000000000e+00 4.4509961340762376e-16 0.0000000000000000e+00  0.0000000000000000e+00 -4.8229328591010636e-16 0.0000000000000000e+00  0.0000000000000000e+00 0.0000000000000000e+00 0.0000000000000000e+00  0.0000000000000000e+00 -1.4932561123935738e-15 0.0000000000000000e+00  0.0000000000000000e+00 -4.3872997587877023e-16 0.0000000000000000e+00  0.0000000000000000e+00 0.0000000000000000e+00 0.0000000000000000e+00  -7.8304255282259030e-16 0.0000000000000000e+00 0.0000000000000000e+00  0.0000000000000000e+00 0.0000000000000000e+00 0.0000000000000000e+00  0.0000000000000000e+00 -3.9278356087235739e-16 0.0000000000000000e+00  -6.2007645269421564e-16 0.0000000000000000e+00 0.0000000000000000e+00  0.0000000000000000e+00 3.4629147311248609e-16 0.0000000000000000e+00  0.0000000000000000e+00 8.0075566208674921e-16 0.0000000000000000e+00  0.0000000000000000e+00 0.0000000000000000e+00 0.0000000000000000e+00  1.1250000001768583e+00 3.9427633834234147e-10 0.0000000000000000e+00  1.5000000000003679e+00 6.5362863218254473e-10 0.0000000000000000e+00  1.1249999998233351e+00 3.9386286111132221e-10 0.0000000000000000e+00  -3.1309600128583404e-16 0.0000000000000000e+00 0.0000000000000000e+00  0.0000000000000000e+00 -1.4495170726903027e-15 0.0000000000000000e+00  0.0000000000000000e+00 5.7372922782552661e-16 0.0000000000000000e+00  0.0000000000000000e+00 0.0000000000000000e+00 0.0000000000000000e+00  0.0000000000000000e+00 0.0000000000000000e+00 0.0000000000000000e+00  0.0000000000000000e+00 0.0000000000000000e+00 0.0000000000000000e+00  0.0000000000000000e+00 0.0000000000000000e+00 0.0000000000000000e+00  0.0000000000000000e+00 0.0000000000000000e+00 0.0000000000000000e+00  0.0000000000000000e+00 0.0000000000000000e+00 0.0000000000000000e+00  0.0000000000000000e+00 0.0000000000000000e+00 0.0000000000000000e+00  0.0000000000000000e+00 0.0000000000000000e+00 0.0000000000000000e+00  0.0000000000000000e+00 -3.3424933795947379e-16 0.0000000000000000e+00  0.0000000000000000e+00 0.0000000000000000e+00 0.0000000000000000e+00  0.0000000000000000e+00 -4.4407408233132664e-16 0.0000000000000000e+00  0.0000000000000000e+00 0.0000000000000000e+00 0.0000000000000000e+00  0.0000000000000000e+00 0.0000000000000000e+00 0.0000000000000000e+00  0.0000000000000000e+00 0.0000000000000000e+00 0.0000000000000000e+00  0.0000000000000000e+00 0.0000000000000000e+00 0.0000000000000000e+00  0.0000000000000000e+00 4.3227124604901549e-16 0.0000000000000000e+00  0.0000000000000000e+00 1.1607517907435212e-15 0.0000000000000000e+00  0.0000000000000000e+00 0.0000000000000000e+00 0.0000000000000000e+00  1.1250000000000009e+00 0.0000000000000000e+00 0.0000000000000000e+00  1.5000000000000016e+00 0.0000000000000000e+00 0.0000000000000000e+00  1.1250000000000011e+00 0.0000000000000000e+00 0.0000000000000000e+00  0.0000000000000000e+00 0.0000000000000000e+00 0.0000000000000000e+00  1.5765191147828175e-15 5.9118172400959426e-16 0.0000000000000000e+00  5.9632786540177451e-16 0.0000000000000000e+00 0.0000000000000000e+00  0.0000000000000000e+00 0.0000000000000000e+00 0.0000000000000000e+00  0.0000000000000000e+00 0.0000000000000000e+00 0.0000000000000000e+00  0.0000000000000000e+00 0.0000000000000000e+00 0.0000000000000000e+00  0.0000000000000000e+00 0.0000000000000000e+00 0.0000000000000000e+00  5.1983536783189817e-16 0.0000000000000000e+00 0.0000000000000000e+00  1.2552193463222228e+00 -3.2986910283297260e-01 0.0000000000000000e+00  1.4202838215974991e+00 5.0294921148162633e-05 0.0000000000000000e+00  1.4473164936205314e+00 2.0973336263800252e-06 0.0000000000000000e+00  1.4599983480325105e+00 9.6206169554754697e-05 0.0000000000000000e+00  1.4889371826323887e+00 -1.2696080764626219e-07 0.0000000000000000e+00  1.4928276585177960e+00 2.1311040717986396e-04 0.0000000000000000e+00  1.4998219959190293e+00 -8.0638626246627486e-07 0.0000000000000000e+00  1.5000931285767585e+00 2.8630801754411670e-04 0.0000000000000000e+00  1.4999960161896924e+00 -4.8468147927358035e-07 0.0000000000000000e+00  1.4999281476512549e+00 -2.0392987110870659e-04 0.0000000000000000e+00  1.4999999143069593e+00 -1.8643943981617461e-07 0.0000000000000000e+00  1.4587182388621407e+00 -7.0737049526861549e-03 0.0000000000000000e+00  1.4923530628041806e+00 -3.4967557659508211e-08 0.0000000000000000e+00  1.4889776210538119e+00 -3.3630159411462527e-09 0.0000000000000000e+00  1.4953954494599060e+00 1.7253436239939243e-09 0.0000000000000000e+00  1.4301088847808621e+00 -4.2989281605264051e-01 0.0000000000000000e+00  1.7570312442320015e+00 -2.7567392164805515e-01 0.0000000000000000e+00  1.4163696358356479e+00 8.3611962138832109e-10 0.0000000000000000e+00  9.7468252414668188e-01 5.8999073170141342e-10 0.0000000000000000e+00  1.2757300563247831e+00 5.6552844117619117e-01 0.0000000000000000e+00  1.5545933174091329e+00 -2.9567943744806269e-01 0.0000000000000000e+00  1.0830868905659041e+00 2.9515332384757070e-01 0.0000000000000000e+00  8.2768413860824663e-01 -4.1539155867015021e-01 0.0000000000000000e+00  1.2157147389168961e+00 -2.3149850941888074e-02 0.0000000000000000e+00  1.1321615250420101e+00 -6.0971084699298927e-01 0.0000000000000000e+00  3.3993295522694644e-01 2.2176070313442933e-01 0.0000000000000000e+00  9.3398473309510832e-01 -8.1117590377413324e-09 0.0000000000000000e+00  1.1610548677917560e+00 -8.5324038829644058e-10 0.0000000000000000e+00  1.0771906422326498e+00 -4.9951426368169996e-08 0.0000000000000000e+00  1.1617828578307867e+00 -1.3614885795887181e-03 0.0000000000000000e+00  1.1175883355262877e+00 -1.7470774781694775e-07 0.0000000000000000e+00  1.1343143393239425e+00 2.4122580957841263e-04 0.0000000000000000e+00  1.0696134259832855e+00 -3.8979227380662083e-07 0.0000000000000000e+00  1.1871084505297782e+00 1.8708643442123308e-04 0.0000000000000000e+00  1.1964801891233392e+00 1.7888814306413940e-06 0.0000000000000000e+00  1.3814837883004045e+00 4.0436408899678477e-05 0.0000000000000000e+00  9.4340319735983547e-01 4.9000168918291821e-05 0.0000000000000000e+00  1.3186300199157825e+00 -4.6696590815737834e-07 0.0000000000000000e+00  1.2101792216323914e+00 1.1631568689681348e-09 0.0000000000000000e+00  1.2389895023542952e+00 8.1825391733315754e-10 0.0000000000000000e+00  1.1419408111527891e+00 -4.6577271491456119e-09 0.0000000000000000e+00  1.0218135420978691e+00 -4.1417767546062166e-07 0.0000000000000000e+00  1.1453787387696912e+00 -3.3135107471330275e-08 0.0000000000000000e+00  1.0726106516012255e+00 8.1531268449392465e-05 0.0000000000000000e+00  1.1280886013058726e+00 -1.2273284005319615e-07 0.0000000000000000e+00  1.1653841990413971e+00 4.4311722575228392e-04 0.0000000000000000e+00  1.1151380181083799e+00 -3.0276375041983542e-07 0.0000000000000000e+00  1.1382830577251026e+00 -1.7776758865143129e-05 0.0000000000000000e+00  1.1238679298015153e+00 1.1453605350658567e-04 0.0000000000000000e+00  1.1486018364068782e+00 1.3915056983125894e-09 0.0000000000000000e+00  1.3647801285584367e+00 -1.1390563065095298e-01 0.0000000000000000e+00  6.0242497376236614e-01 5.4983195799803708e-01 0.0000000000000000e+00  1.0693576046847484e+00 6.2135001748596883e-06 0.0000000000000000e+00  1.0372286035182154e+00 -1.1625576284612749e-01 0.0000000000000000e+00  1.4971300133852909e+00 -4.1444623325747974e-03 0.0000000000000000e+00  1.3948795592107650e+00 7.8725474561292666e-10 0.0000000000000000e+00  1.4866219052843048e+00 2.0822382358183154e-09 0.0000000000000000e+00  6.3074281330465698e-01 -1.0290503835693286e-01 0.0000000000000000e+00  1.5415126359182783e+00 3.2937934462461926e-01 0.0000000000000000e+00  3.1516295359688451e-01 -2.9165159548668973e-01 0.0000000000000000e+00  1.2082512588478331e+00 7.7402722350012651e-02 0.0000000000000000e+00  9.3641926011968124e-01 2.7887239227183784e-05 0.0000000000000000e+00  1.4378907604504014e+00 1.3384836479641085e-04 0.0000000000000000e+00  9.1017009731462473e-01 1.7644900750110466e-07 0.0000000000000000e+00  8.4146710927738821e-01 1.4561234736725719e-05 0.0000000000000000e+00  8.2402955346594686e-01 2.5478261571081774e-10 0.0000000000000000e+00  1.1942514778039983e+00 1.1893975504733896e-02 0.0000000000000000e+00  7.6059991748976763e-01 -2.4754030404788870e-07 0.0000000000000000e+00  1.7056657358708582e+00 -1.9358669120763861e-01 0.0000000000000000e+00  1.8963637021922681e+00 -1.1236200125175230e-02 0.0000000000000000e+00  1.4927310650587904e+00 1.6307363157160300e-05 0.0000000000000000e+00  9.3778985964595551e-01 1.0057993417198532e-09 0.0000000000000000e+00  1.0144982172398833e+00 1.0590663243860584e-05 0.0000000000000000e+00  1.1816532131630180e+00 2.5342652437118612e-01 0.0000000000000000e+00  1.0033851702228458e+00 5.5212506656333848e-01 0.0000000000000000e+00  1.1446722165205205e+00 5.4550844155138234e-01 0.0000000000000000e+00  1.7639663198036590e+00 3.6719664350483308e-02 0.0000000000000000e+00  1.0974420078118425e+00 -5.7173311254980619e-01 0.0000000000000000e+00  1.7781317652178825e+00 4.6684285143671633e-01 0.0000000000000000e+00  1.1073777871191557e+00 1.0423812322862258e-01 0.0000000000000000e+00  1.2386330099729874e+00 -4.2070041842051947e-01 0.0000000000000000e+00  1.3635347026033311e+00 1.9507554737698218e-02 0.0000000000000000e+00  7.3709091847759889e-01 1.7121769079476802e-02 0.0000000000000000e+00  7.7348803411514666e-01 2.6267632582546125e-10 0.0000000000000000e+00  1.2967966770114550e+00 5.5241226601101914e-10 0.0000000000000000e+00  1.4790924089211743e+00 7.1078235589223883e-10 0.0000000000000000e+00  1.4062499998497044e+00 5.8160745688323895e-10 0.0000000000000000e+00  5.4983050944136636e-01 1.6001974003975925e-10 0.0000000000000000e+00  5.4983050988838389e-01 2.3945499934089642e-10 0.0000000000000000e+00  0.0000000000000000e+00 0.0000000000000000e+00 0.0000000000000000e+00  1.1555042249231375e+00 -4.9456755444138349e-02 0.0000000000000000e+00  9.3189232082499918e-01 -1.0761249865447090e-01 0.0000000000000000e+00  0.0000000000000000e+00 -1.2661119169021083e-15 0.0000000000000000e+00  7.4081139614208535e-01 1.1442285519540372e-01 0.0000000000000000e+00  5.2800585075619400e-01 5.4717196294974624e-02 0.0000000000000000e+00  0.0000000000000000e+00 0.0000000000000000e+00 0.0000000000000000e+00  1.0641322203168417e+00 2.3082333812728009e-01 0.0000000000000000e+00  6.5624999999999967e-01 0.0000000000000000e+00 0.0000000000000000e+00  1.6022419086974977e+00 -4.1491620823549019e-01 0.0000000000000000e+00  1.0916923985516849e+00 -1.0845692027817654e-01 0.0000000000000000e+00  1.1421016022584467e+00 -1.7096460464460397e-01 0.0000000000000000e+00  1.3085543063271141e+00 4.9572085947162287e-01 0.0000000000000000e+00  1.2803006470772553e+00 3.5855551944244468e-01 0.0000000000000000e+00  1.2520962880473441e+00 -5.3272096384183032e-01 0.0000000000000000e+00  1.1063196781784896e+00 -3.9434040739316800e-01 0.0000000000000000e+00  1.3258142048538699e+00 -4.1946655880330580e-01 0.0000000000000000e+00  1.6784233128476185e+00 -4.9619800646369705e-01 0.0000000000000000e+00  1.4158254569051352e+00 -5.7578279463545390e-01 0.0000000000000000e+00  1.3287947175748731e+00 1.0282792800842916e-09 0.0000000000000000e+00  1.4446590339966372e+00 1.6338129092539587e-09 0.0000000000000000e+00  1.4877530020495942e+00 1.2780295402185113e-09 0.0000000000000000e+00  1.0659981418069937e+00 9.7869138370396962e-10 0.0000000000000000e+00  6.7414314334159808e-01 4.7662810524791944e-10 0.0000000000000000e+00  1.3908869459884190e+00 1.7748570585016235e-09 0.0000000000000000e+00  1.3429285862636786e+00 1.2652742874872358e-09 0.0000000000000000e+00  1.3504338757919878e+00 -6.2471078823470416e-02 0.0000000000000000e+00  1.4294020951521835e+00 -4.1215361670406993e-02 0.0000000000000000e+00  1.4335610799998197e+00 -2.9693805551797743e-02 0.0000000000000000e+00  1.4737198898480337e+00 6.9888318039664838e-10 0.0000000000000000e+00  1.2806973290590569e+00 5.3472597891871700e-10 0.0000000000000000e+00  1.4062500001510514e+00 5.8154186212141827e-10 0.0000000000000000e+00  1.4609486772588369e+00 1.6049166217301673e-09 0.0000000000000000e+00  1.4999715046978384e+00 7.3432147851366933e-10 0.0000000000000000e+00  1.4051731466786539e+00 -5.5886278724477780e-10 0.0000000000000000e+00  1.3782500673677811e+00 9.5540008279541198e-10 0.0000000000000000e+00  1.4430694608898800e+00 -2.6201033587188748e-09 0.0000000000000000e+00  1.4170980432625115e+00 -3.8014339802937302e-04 0.0000000000000000e+00  1.4997145113347521e+00 -1.3712727187633843e-03 0.0000000000000000e+00  1.4116742038781207e+00 -3.8005210261286382e-04 0.0000000000000000e+00  1.2410219468568053e+00 -2.4761483687231367e-01 0.0000000000000000e+00  1.2787846888817920e+00 -2.4139787630146453e-01 0.0000000000000000e+00  4.0797860161977018e-01 3.6498970087511856e-01 0.0000000000000000e+00  3.1683244293789847e-01 3.7884790930335543e-01 0.0000000000000000e+00  -3.3005454303799104e-16 -3.2435302506225516e-16 0.0000000000000000e+00  1.7792406232603658e-01 2.3202473647293759e-01 0.0000000000000000e+00  1.1252094083092436e-01 9.4437642069824926e-02 0.0000000000000000e+00  0.0000000000000000e+00 0.0000000000000000e+00 0.0000000000000000e+00  9.0860784538214989e-01 -5.6436855955174070e-01 0.0000000000000000e+00  1.4259402623542103e+00 6.4118113536481538e-05 0.0000000000000000e+00  1.4990423489798781e+00 5.2668474081507563e-05 0.0000000000000000e+00  1.4983070980529090e+00 7.7731213618261052e-05 0.0000000000000000e+00  1.3923810630481155e+00 8.3063716408906135e-07 0.0000000000000000e+00  1.4741759605096458e+00 2.7407356258149666e-06 0.0000000000000000e+00  1.4961343336579835e+00 7.7512118529964201e-07 0.0000000000000000e+00  1.1140872322264690e+00 -1.0360569879213554e-07 0.0000000000000000e+00  1.3413211012613391e+00 -4.9682139744833248e-07 0.0000000000000000e+00  6.1779985700848006e-01 2.3020017448515323e-05 0.0000000000000000e+00  6.1785271958633703e-01 3.0303804667821511e-05 0.0000000000000000e+00  0.0000000000000000e+00 0.0000000000000000e+00 0.0000000000000000e+00  1.3636423151454720e+00 1.5230516460641453e-04 0.0000000000000000e+00  1.3177812220356488e+00 1.0154869495789438e-04 0.0000000000000000e+00  1.4797230166334063e+00 1.4950322952245556e-04 0.0000000000000000e+00  1.0986393741459262e+00 1.0609092672293138e-04 0.0000000000000000e+00  1.3781950363553350e+00 1.9129988321616917e-04 0.0000000000000000e+00  6.5538609985045537e-01 3.5523090276154911e-05 0.0000000000000000e+00  5.8199174024943634e-01 -1.2760533665979439e-07 0.0000000000000000e+00  5.8199145720329093e-01 -1.4632355009079364e-07 0.0000000000000000e+00  0.0000000000000000e+00 0.0000000000000000e+00 0.0000000000000000e+00  1.3757958508652066e+00 -6.9097892259099809e-07 0.0000000000000000e+00  1.4964881411148192e+00 -6.9139022714802661e-07 0.0000000000000000e+00  1.0697409427200617e+00 -4.0299859233131527e-07 0.0000000000000000e+00  1.3996015780876025e+00 -6.2626590798489967e-07 0.0000000000000000e+00  6.4888547458514234e-01 -1.0541290080026016e-07 0.0000000000000000e+00  6.5544217685124884e-01 2.0824245621265300e-05 0.0000000000000000e+00  0.0000000000000000e+00 1.5102817262482748e-15 0.0000000000000000e+00  1.4055737187978523e+00 2.0804286052197331e-04 0.0000000000000000e+00  1.4981861903446911e+00 2.6724445128284842e-04 0.0000000000000000e+00  1.1311265447840073e+00 7.6697934094052312e-05 0.0000000000000000e+00  1.4092413645750570e+00 1.3970055153515021e-04 0.0000000000000000e+00  6.6622801472637072e-01 -1.3771769640178556e-05 0.0000000000000000e+00  6.4888563187799464e-01 -6.7619647425283380e-08 0.0000000000000000e+00  0.0000000000000000e+00 0.0000000000000000e+00 0.0000000000000000e+00  1.4031643984223650e+00 -4.5283976091247185e-07 0.0000000000000000e+00  1.4999411899043742e+00 -6.8398946518853179e-07 0.0000000000000000e+00  1.1216410446188154e+00 -2.0089207895307463e-07 0.0000000000000000e+00  1.4064125828430649e+00 -2.9909485299063493e-07 0.0000000000000000e+00  6.5856964005539331e-01 -4.1239619020389445e-08 0.0000000000000000e+00  1.3930664985074257e+00 1.9123794654267503e-09 0.0000000000000000e+00  1.4994286256666638e+00 2.1701163300046102e-09 0.0000000000000000e+00  6.8374664118108652e-01 -3.7782043363537395e-10 0.0000000000000000e+00  6.8374664097933302e-01 3.7081438965254247e-10 0.0000000000000000e+00  0.0000000000000000e+00 0.0000000000000000e+00 0.0000000000000000e+00  1.3878966647573376e+00 -1.0411852187161730e-08 0.0000000000000000e+00  1.4999230806164656e+00 -1.3919739190594595e-08 0.0000000000000000e+00  5.2278399074941861e-01 -3.2438829836331483e-09 0.0000000000000000e+00  5.2278398547572957e-01 -1.0899324088383950e-09 0.0000000000000000e+00  0.0000000000000000e+00 0.0000000000000000e+00 0.0000000000000000e+00  1.0547575476551050e+00 -3.9156747069145788e-09 0.0000000000000000e+00  1.3236896045353990e+00 -2.2466954412057809e-08 0.0000000000000000e+00  6.2110989139791917e-01 -2.0499666346906312e-08 0.0000000000000000e+00  6.2110986214217501e-01 -1.0365325936835168e-08 0.0000000000000000e+00  0.0000000000000000e+00 0.0000000000000000e+00 0.0000000000000000e+00  1.0081938797205598e+00 -2.1956134768110452e-08 0.0000000000000000e+00  1.3639553253992220e+00 -5.0700502251824932e-08 0.0000000000000000e+00  1.3943928577129812e+00 -1.2073545661972537e-07 0.0000000000000000e+00  1.4981010478897518e+00 -8.7669846094292053e-08 0.0000000000000000e+00  6.8439740591752274e-01 -8.4428854192697780e-04 0.0000000000000000e+00  6.8361086785810354e-01 -9.8327246571743365e-05 0.0000000000000000e+00  0.0000000000000000e+00 0.0000000000000000e+00 0.0000000000000000e+00  1.4131104440192079e+00 -3.7685458568797519e-03 0.0000000000000000e+00  1.4200423201555754e+00 -7.9416709323182095e-04 0.0000000000000000e+00  6.5070943309557006e-01 -6.9538368165937455e-08 0.0000000000000000e+00  6.5070933569078482e-01 -4.2007261833128664e-08 0.0000000000000000e+00  0.0000000000000000e+00 0.0000000000000000e+00 0.0000000000000000e+00  1.0976429673756467e+00 -9.7756200374834859e-08 0.0000000000000000e+00  1.4044876290247301e+00 -2.1687427379822259e-07 0.0000000000000000e+00  1.4050132055623035e+00 -3.5114749318143883e-07 0.0000000000000000e+00  1.4999986904888014e+00 -3.1353321542145246e-07 0.0000000000000000e+00  6.6300652153483253e-01 1.0425247354495359e-04 0.0000000000000000e+00  6.6315942334036082e-01 1.1332956788669578e-04 0.0000000000000000e+00  0.0000000000000000e+00 0.0000000000000000e+00 0.0000000000000000e+00  1.1479263682643790e+00 -6.2804299705390189e-05 0.0000000000000000e+00  1.4134097368181289e+00 9.5821610132403303e-05 0.0000000000000000e+00  1.4091025106652277e+00 3.0101452821369436e-04 0.0000000000000000e+00  1.5000867013171260e+00 1.7654794547596766e-04 0.0000000000000000e+00  6.1566354048730065e-01 -1.4074258665479452e-07 0.0000000000000000e+00  6.1566331758377024e-01 -1.0286131122240583e-07 0.0000000000000000e+00  0.0000000000000000e+00 0.0000000000000000e+00 0.0000000000000000e+00  1.0939551099271725e+00 -2.7879126297480712e-07 0.0000000000000000e+00  1.3930570768020498e+00 -5.351426013830