<?xml version="1.0"?>
<VTKFile type="UnstructuredGrid"  version="0.1"  >
<UnstructuredGrid>
<Piece  NumberOfPoints="525" NumberOfCells="924">
<Points>
<DataArray  type="Float64"  NumberOfComponents="3"  format="ascii">0 0 0  2.2 0 0  2.2 0.41 0  0 0.41 0  0.15 0.2 0  0.25 0.2 0  0.2 0.15 0  0.2 0.25 0  0.104762 0 0  0.209524 0 0  0.314286 0 0  0.419048 0 0  0.52381 0 0  0.628571 0 0  0.733333 0 0  0.838095 0 0  0.9428569999999999 0 0  1.04762 0 0  1.15238 0 0  1.25714 0 0  1.3619 0 0  1.46667 0 0  1.57143 0 0  1.67619 0 0  1.78095 0 0  1.88571 0 0  1.99048 0 0  2.09524 0 0  2.2 0.1025 0  2.2 0.205 0  2.2 0.3075 0  2.1 0.41 0  2 0.41 0  1.9 0.41 0  1.8 0.41 0  1.7 0.41 0  1.6 0.41 0  1.5 0.41 0  1.4 0.41 0  1.3 0.41 0  1.2 0.41 0  1.1 0.41 0  1 0.41 0  0.9 0.41 0  0.8 0.41 0  0.7 0.41 0  0.6 0.41 0  0.5 0.41 0  0.4 0.41 0  0.3 0.41 0  0.2 0.41 0  0.1 0.41 0  0 0.3075 0  0 0.205 0  0 0.1025 0  0.1566987973585577 0.2250001169958213 0  0.1749998830041787 0.2433012026414423 0  0.2250001169958213 0.2433012026414423 0  0.2433012026414423 0.2250001169958213 0  0.2433012026414423 0.1749998830041787 0  0.2250001169958213 0.1566987973585577 0  0.1749998830041787 0.1566987973585577 0  0.1566987973585577 0.1749998830041787 0  0.352033 0.262216 0  1.04579 0.252253 0  1.24065 0.243419 0  0.985775 0.171509 0  1.30324 0.187395 0  0.890988 0.190768 0  1.39085 0.202767 0  0.801464 0.204685 0  1.49904 0.204666 0  0.704267 0.202289 0  1.60238 0.204951 0  0.487789 0.19191 0  1.72935 0.219637 0  1.83335 0.187427 0  2.03359 0.193642 0  0.314663 0.307348 0  0.249039 0.333583 0  2.12147 0.253405 0  2.06373 0.0836837 0  0.0734726 0.267055 0  0.143989 0.0677174 0  0.0613613 0.33781 0  0.299628 0.236829 0  0.527114 0.295386 0  0.262384 0.26549 0  0.275777 0.18341 0  1.74578 0.330928 0  1.84001 0.302448 0  1.64998 0.313838 0  0.648421 0.302367 0  1.54544 0.308508 0  0.755686 0.306156 0  1.42668 0.314809 0  0.870524 0.298596 0  1.22553 0.112785 0  1.05603 0.147372 0  0.969346 0.329867 0  1.32527 0.276284 0  2.02914 0.29511 0  1.88168 0.119486 0  1.79545 0.104842 0  1.35688 0.0892539 0  1.69041 0.105324 0  0.914199 0.09555660000000001 0  1.58234 0.102923 0  0.61843 0.10815 0  1.47999 0.101161 0  0.725217 0.104273 0  0.821727 0.102306 0  1.96725 0.105778 0  0.418624 0.241547 0  0.135226 0.239087 0  1.14921 0.314841 0  0.404508 0.333259 0  0.590155 0.206269 0  2.12554 0.150731 0  1.93166 0.22436 0  0.104689 0.190046 0  0.267856 0.07447529999999999 0  0.269368 0.221581 0  0.434446 0.114927 0  1.0089 0.07933809999999999 0  0.953023 0.246698 0  1.25853 0.33355 0  1.05268 0.340828 0  2.1369 0.067383 0  0.522398 0.112537 0  1.3421 0.348929 0  0.215186 0.289473 0  0.203197 0.335348 0  1.13984 0.190728 0  1.93813 0.330504 0  1.10505 0.0883705 0  0.341988 0.0824728 0  0.253113 0.138035 0  0.291932 0.131907 0  0.203713 0.102439 0  0.150375 0.134668 0  0.151494 0.309119 0  0.354384 0.17896 0  0.06853670000000001 0.100776 0  0.424128 0.180088 0  0.474925 0.0568661 0  2.10843 0.347669 0  2.160735 0.2804525 0  2.160735 0.2292025 0  2.2 0.25625 0  2.079485 0.04184185 0  2.027105 0.04184185 0  2.04286 0 0  0.1767565 0.0338587 0  0.1243755 0.0338587 0  0.157143 0 0  0.08068065000000001 0.373905 0  0.03068065 0.373905 0  0.05 0.41 0  0.03068065 0.322655 0  0 0.35875 0  0.281851 0.3204655 0  0.2745195 0.3717915 0  0.3073315 0.358674 0  0.06741695 0.3024325 0  0.0367363 0.2872775 0  0.3071455 0.2720885 0  0.3258305 0.2495225 0  0.333348 0.284782 0  0.2557115 0.2995365 0  0.2885235 0.286419 0  2.075305 0.2742575 0  2.031365 0.244376 0  2.07753 0.2235235 0  2.01549 0.09473085000000001 0  1.978865 0.052889 0  2.00042 0.14971 0  2.04866 0.13866285 0  0.472869 0.2684665 0  0.4532065 0.2167285 0  0.5074514999999999 0.243648 0  2.16277 0.1778655 0  2.16277 0.1266155 0  2.2 0.15375 0  1.90667 0.171923 0  1.882505 0.2058935 0  1.857515 0.1534565 0  1.885835 0.263404 0  1.83668 0.2449375 0  0.6042925 0.1572095 0  0.647211 0.204279 0  0.6613485 0.1552195 0  0.3595855 0.3203035 0  0.3782705 0.2977375 0  0.155113 0.241194 0  0.1459625 0.2320435 0  0.1646446609406726 0.2353553390593274 0  0.259539 0.179205 0  0.2628885 0.191705 0  0.2482962819455563 0.1870590127797247 0  0.281006 0.2511595 0  1.0209025 0.1594405 0  1.05091 0.1998125 0  1.0157825 0.211881 0  1.264385 0.15009 0  1.23309 0.178102 0  1.271945 0.215407 0  1.291205 0.10101945 0  1.33006 0.13832445 0  0.928528 0.0477783 0  0.876147 0.0477783 0  0.890476 0 0  0.9025935 0.1431623 0  0.9499869999999999 0.1335328 0  0.9383815 0.1811385 0  0.867963 0.0989313 0  0.8563575 0.146537 0  0.8299110000000001 0.051153 0  1.411775 0.04462695 0  1.35939 0.04462695 0  1.414285 0 0  1.373865 0.14601045 0  1.347045 0.195081 0  1.418435 0.09520745 0  1.43542 0.151964 0  1.47333 0.0505805 0  0.7775300000000001 0.051153 0  0.785714 0 0  0.8115954999999999 0.1534955 0  0.8462259999999999 0.1977265 0  0.7734719999999999 0.1032895 0  0.7633405 0.154479 0  0.729275 0.0521365 0  1.52571 0.0505805 0  1.51905 0 0  1.489515 0.1529135 0  1.444945 0.2037165 0  1.531165 0.102042 0  1.54069 0.1537945 0  1.576885 0.0514615 0  1.9804 0.259735 0  1.982625 0.209001 0  1.820005 0.356224 0  1.870005 0.356224 0  1.85 0.41 0  1.78468 0.2610425 0  1.78135 0.203532 0  1.72289 0.370464 0  1.77289 0.370464 0  1.75 0.41 0  1.792895 0.316688 0  1.737565 0.2752825 0  1.62499 0.361919 0  1.67499 0.361919 0  1.65 0.41 0  1.69788 0.322383 0  1.689665 0.2667375 0  1.62618 0.2593945 0  1.665865 0.212294 0  0.6242105 0.3561835 0  0.6742105 0.3561835 0  0.6499999999999999 0.41 0  0.6192880000000001 0.254318 0  0.6763440000000001 0.252328 0  1.52272 0.359254 0  1.57272 0.359254 0  1.55 0.41 0  1.59771 0.311173 0  1.57391 0.2567295 0  1.52224 0.256587 0  1.55071 0.2048085 0  0.727843 0.358078 0  0.7778430000000001 0.358078 0  0.75 0.41 0  0.7020535 0.3042615 0  0.7299765 0.2542225 0  0.778575 0.2554205 0  0.7528655 0.203487 0  1.41334 0.3624045 0  1.46334 0.3624045 0  1.45 0.41 0  1.48606 0.3116585 0  1.46286 0.2597375 0  1.408765 0.258788 0  0.8352619999999999 0.354298 0  0.885262 0.354298 0  0.8500000000000001 0.41 0  0.813105 0.302376 0  0.8359939999999999 0.2516405 0  0.880756 0.244682 0  0.9346730000000001 0.3699335 0  0.984673 0.3699335 0  0.95 0.41 0  0.9199349999999999 0.3142315 0  0.676894 0.0521365 0  0.680952 0 0  0.714742 0.153281 0  0.6718235 0.1062115 0  0.6235005 0.054075 0  1.629265 0.0514615 0  1.62381 0 0  1.59236 0.153937 0  1.636375 0.1041235 0  1.646395 0.1551375 0  1.6833 0.052662 0  1.73568 0.052662 0  1.72857 0 0  1.70988 0.1624805 0  1.74293 0.105083 0  1.7624 0.1622395 0  1.7882 0.052421 0  1.84058 0.052421 0  1.83333 0 0  1.8144 0.1461345 0  1.838565 0.112164 0  1.883695 0.059743 0  1.124605 0.3624205 0  1.174605 0.3624205 0  1.15 0.41 0  1.314255 0.2318395 0  1.28296 0.2598515 0  1.35806 0.2395255 0  1.375975 0.2955465 0  1.92648 0.052889 0  1.938095 0 0  1.924465 0.112632 0  1.949455 0.165069 0  0.352254 0.3716295 0  0.402254 0.3716295 0  0.35 0.41 0  0.513557 0.352693 0  0.563557 0.352693 0  0.55 0.41 0  0.5877675 0.2988765 0  0.5586344999999999 0.2508275 0  0.538972 0.1990895 0  0.452254 0.3716295 0  0.45 0.41 0  0.465811 0.3143225 0  0.411566 0.287403 0  0.3853285 0.2518815 0  0.1199575 0.2145665 0  0.0890808 0.2285505 0  0.1043493 0.253071 0  0.2245195 0.3717915 0  0.25 0.41 0  0.291071 0.03723765 0  0.23869 0.03723765 0  0.261905 0 0  0.265876 0.2435355 0  0.2563345 0.2232905 0  0.2528425 0.245245 0  0.284498 0.229205 0  1.032465 0.11335505 0  0.9973375 0.12542355 0  0.9615494999999999 0.08744735000000001 0  0.9220055 0.218733 0  0.9693989999999999 0.2091035 0  0.9611845 0.2882825 0  0.9117735 0.272647 0  1.229265 0.371775 0  1.279265 0.371775 0  1.25 0.41 0  1.02634 0.375414 0  1.07634 0.375414 0  1.05 0.41 0  1.011013 0.3353475 0  2.11607 0.0336915 0  2.16845 0.0336915 0  2.14762 0 0  2.16845 0.0849415 0  2.2 0.05125 0  2.100315 0.07553335 0  0.5562765000000001 0.159403 0  0.570414 0.1103435 0  0.5050935 0.1522235 0  1.32105 0.3794645 0  1.37105 0.3794645 0  1.35 0.41 0  1.333685 0.3126065 0  1.38439 0.331869 0  0.9994065 0.2494755 0  1.007568 0.29106 0  1.300315 0.3412395 0  1.2919 0.304917 0  2.13122 0.109057 0  2.094635 0.11720735 0  0.2725725 0.2024955 0  0.259684 0.2107905 0  0.2482962819455563 0.2129409872202754 0  0.2877025 0.2101195 0  2.123505 0.202068 0  2.079565 0.1721865 0  1.02826 0.03966905 0  0.9758784999999999 0.03966905 0  0.9952384999999999 0 0  1.049235 0.2965405 0  1.100945 0.3278345 0  1.0975 0.283547 0  0.5711200000000001 0.054075 0  0.5761905 0 0  0.523104 0.0562685 0  1.24959 0.2884845 0  1.20387 0.3241955 0  1.19493 0.27913 0  0.238785 0.2774815 0  0.2321125 0.311528 0  0.226118 0.3344655 0  0.2015985 0.3726739999999999 0  1.144525 0.2527845 0  1.190245 0.2170735 0  1.092815 0.2214905 0  0.2091915 0.3124105 0  0.220093 0.266387 0  0.243692 0.2543955 0  0.2353553390593274 0.2353553390593274 0  0.478422 0.113732 0  0.4611175 0.1534185 0  1.919065 0.370252 0  1.969065 0.370252 0  1.95 0.41 0  1.983635 0.312807 0  2.01457 0.352555 0  1.88907 0.316476 0  1.934895 0.277432 0  1.182685 0.1517565 0  1.097935 0.16905 0  1.128715 0.04418525 0  1.076335 0.04418525 0  1.1 0 0  1.056975 0.08385429999999999 0  1.08054 0.11787125 0  1.122445 0.13954925 0  1.16529 0.10057775 0  0.304922 0.07847404999999999 0  0.328137 0.0412364 0  0.380518 0.0412364 0  0.366667 0 0  0.388217 0.09869990000000001 0  0.426747 0.0574635 0  0.31696 0.1071899 0  0.279894 0.10319115 0  0.2725225 0.134971 0  0.2604845 0.10625515 0  0.228413 0.120237 0  0.2143565 0.129569 0  0.2390565 0.147367 0  1.30701 0.04462695 0  1.30952 0 0  1.241335 0.0563925 0  0.2357845 0.08845715 0  1.188955 0.0563925 0  1.20476 0 0  0.2066185 0.0512195 0  0.173851 0.08507819999999999 0  0.0367363 0.2360275 0  0 0.25625 0  0.264445 0.1607225 0  0.248207 0.1565175 0  0.2353553390593274 0.1646446609406726 0  0.2838545 0.1576585 0  0.130694 0.182523 0  0.1273445 0.195023 0  0.1517037180544437 0.1870590127797247 0  0.127532 0.162357 0  0.153537 0.154834 0  0.0523445 0.197523 0  0
[...]
<PointData  Vectors="u"> 
<DataArray  type="Float64"  Name="u"  NumberOfComponents="3" format="ascii">1.2781649925561718e-14 -1.0780671642459073e-14 0.0000000000000000e+00  0.0000000000000000e+00 0.0000000000000000e+00 0.0000000000000000e+00  0.0000000000000000e+00 0.0000000000000000e+00 0.0000000000000000e+00  -9.5776212157867103e-16 -7.2161458398200199e-16 0.0000000000000000e+00  0.0000000000000000e+00 0.0000000000000000e+00 0.0000000000000000e+00  0.0000000000000000e+00 0.0000000000000000e+00 0.0000000000000000e+00  0.0000000000000000e+00 0.0000000000000000e+00 0.0000000000000000e+00  0.0000000000000000e+00 -4.2211518635121847e-16 0.0000000000000000e+00  0.0000000000000000e+00 0.0000000000000000e+00 0.0000000000000000e+00  0.0000000000000000e+00 -7.7512188823974289e-16 0.0000000000000000e+00  0.0000000000000000e+00 -1.9098297590004231e-15 0.0000000000000000e+00  0.0000000000000000e+00 0.0000000000000000e+00 0.0000000000000000e+00  0.0000000000000000e+00 -5.1019154284050987e-16 0.0000000000000000e+00  0.0000000000000000e+00 1.0186552380271115e-15 0.0000000000000000e+00  0.0000000000000000e+00 7.7051410622993465e-16 0.0000000000000000e+00  0.0000000000000000e+00 -4.9930365186975001e-16 0.0000000000000000e+00  0.0000000000000000e+00 0.0000000000000000e+00 0.0000000000000000e+00  0.0000000000000000e+00 0.0000000000000000e+00 0.0000000000000000e+00  0.0000000000000000e+00 -6.5501175419128233e-16 0.0000000000000000e+00  0.0000000000000000e+00 0.0000000000000000e+00 0.0000000000000000e+00  0.0000000000000000e+00 0.0000000000000000e+00 0.0000000000000000e+00  0.0000000000000000e+00 0.0000000000000000e+00 0.0000000000000000e+00  -7.0820848771951800e-16 3.0686084885559787e-16 0.0000000000000000e+00  4.6624137369170615e-16 0.0000000000000000e+00 0.0000000000000000e+00  0.0000000000000000e+00 0.0000000000000000e+00 0.0000000000000000e+00  0.0000000000000000e+00 -1.7235888065319995e-15 0.0000000000000000e+00  0.0000000000000000e+00 0.0000000000000000e+00 0.0000000000000000e+00  0.0000000000000000e+00 0.0000000000000000e+00 0.0000000000000000e+00  1.1250000003582423e+00 3.0467387195107176e-10 0.0000000000000000e+00  1.5000000000001623e+00 4.9463196885692445e-10 0.0000000000000000e+00  1.1249999996419968e+00 3.0423565708146622e-10 0.0000000000000000e+00  0.0000000000000000e+00 0.0000000000000000e+00 0.0000000000000000e+00  0.0000000000000000e+00 -3.0337744259151948e-16 0.0000000000000000e+00  0.0000000000000000e+00 0.0000000000000000e+00 0.0000000000000000e+00  0.0000000000000000e+00 0.0000000000000000e+00 0.0000000000000000e+00  0.0000000000000000e+00 0.0000000000000000e+00 0.0000000000000000e+00  0.0000000000000000e+00 0.0000000000000000e+00 0.0000000000000000e+00  0.0000000000000000e+00 -3.2240002384251412e-16 0.0000000000000000e+00  0.0000000000000000e+00 0.0000000000000000e+00 0.0000000000000000e+00  0.0000000000000000e+00 4.4093631843667070e-16 0.0000000000000000e+00  0.0000000000000000e+00 0.0000000000000000e+00 0.0000000000000000e+00  0.0000000000000000e+00 0.0000000000000000e+00 0.0000000000000000e+00  0.0000000000000000e+00 0.0000000000000000e+00 0.0000000000000000e+00  0.0000000000000000e+00 0.0000000000000000e+00 0.0000000000000000e+00  0.0000000000000000e+00 -7.4459998582532000e-16 0.0000000000000000e+00  0.0000000000000000e+00 -4.7532966873254166e-16 0.0000000000000000e+00  0.0000000000000000e+00 0.0000000000000000e+00 0.0000000000000000e+00  0.0000000000000000e+00 0.0000000000000000e+00 0.0000000000000000e+00  0.0000000000000000e+00 0.0000000000000000e+00 0.0000000000000000e+00  0.0000000000000000e+00 4.7234131553780736e-16 0.0000000000000000e+00  0.0000000000000000e+00 0.0000000000000000e+00 0.0000000000000000e+00  0.0000000000000000e+00 0.0000000000000000e+00 0.0000000000000000e+00  1.1250000000000000e+00 0.0000000000000000e+00 0.0000000000000000e+00  1.4999999999999989e+00 0.0000000000000000e+00 0.0000000000000000e+00  1.1250000000000018e+00 -9.9599008292483258e-16 0.0000000000000000e+00  0.0000000000000000e+00 0.0000000000000000e+00 0.0000000000000000e+00  4.3069425378630634e-15 1.6151030702013984e-15 0.0000000000000000e+00  -5.5604055825803829e-16 3.5299053988201712e-16 0.0000000000000000e+00  0.0000000000000000e+00 0.0000000000000000e+00 0.0000000000000000e+00  0.0000000000000000e+00 0.0000000000000000e+00 0.0000000000000000e+00  0.0000000000000000e+00 -3.6093157347196040e-16 0.0000000000000000e+00  0.0000000000000000e+00 0.0000000000000000e+00 0.0000000000000000e+00  -7.9772380369690915e-16 0.0000000000000000e+00 0.0000000000000000e+00  1.2548597358186964e+00 -3.2696033059868618e-01 0.0000000000000000e+00  1.4202797688202524e+00 4.9576214789275627e-05 0.0000000000000000e+00  1.4473151256402161e+00 5.3758495100420244e-06 0.0000000000000000e+00  1.4599981069163266e+00 7.7393764180644473e-05 0.0000000000000000e+00  1.4889375268633505e+00 1.9611106049230864e-06 0.0000000000000000e+00  1.4928172173050804e+00 9.8374445857309640e-05 0.0000000000000000e+00  1.4998220107141365e+00 3.8548292546677959e-08 0.0000000000000000e+00  1.5000918877066149e+00 -8.2014791476139827e-05 0.0000000000000000e+00  1.4999960166083475e+00 -2.9943200474263968e-07 0.0000000000000000e+00  1.4999141094619446e+00 -1.1668279904442044e-03 0.0000000000000000e+00  1.4999999142680862e+00 -1.7364886208822412e-07 0.0000000000000000e+00  1.4591235498628028e+00 -8.1687822124241610e-03 0.0000000000000000e+00  1.4923530657144162e+00 -4.9455984095633790e-08 0.0000000000000000e+00  1.4889776195631741e+00 -1.1704547885798180e-08 0.0000000000000000e+00  1.4953954493973798e+00 7.6166876958185877e-10 0.0000000000000000e+00  1.4285224075170642e+00 -4.2931885831612360e-01 0.0000000000000000e+00  1.7554591655989289e+00 -2.7564448041601025e-01 0.0000000000000000e+00  1.4163696358126545e+00 5.9057813865164672e-10 0.0000000000000000e+00  9.7468252404243205e-01 3.7082206610793043e-10 0.0000000000000000e+00  1.2752624034475011e+00 5.6413989979094215e-01 0.0000000000000000e+00  1.5558116082859641e+00 -2.9606013480965232e-01 0.0000000000000000e+00  1.0826444222285416e+00 2.9463555727162466e-01 0.0000000000000000e+00  8.2733852290027776e-01 -4.1550555700162045e-01 0.0000000000000000e+00  1.2183893638563059e+00 -2.3619068196616681e-02 0.0000000000000000e+00  1.1315077126634172e+00 -6.1011586966659548e-01 0.0000000000000000e+00  3.4041530303977130e-01 2.2136275490347485e-01 0.0000000000000000e+00  9.3398474648252905e-01 -1.3830471667661134e-08 0.0000000000000000e+00  1.1610548733752282e+00 -5.5476366019154552e-09 0.0000000000000000e+00  1.0771906650519769e+00 -5.6446042821265657e-08 0.0000000000000000e+00  1.1629120020591777e+00 -2.1429374111390656e-03 0.0000000000000000e+00  1.1175883381068588e+00 -1.4141998873268595e-07 0.0000000000000000e+00  1.1346711963354679e+00 -7.8104095744345255e-05 0.0000000000000000e+00  1.0696131966736118e+00 -1.4581717502177990e-07 0.0000000000000000e+00  1.1871707465186943e+00 9.8080590384797022e-05 0.0000000000000000e+00  1.1964831694375095e+00 4.2570758817105179e-06 0.0000000000000000e+00  1.3814888442767792e+00 4.1360140295275238e-05 0.0000000000000000e+00  9.4340109821957840e-01 4.0748390041765226e-05 0.0000000000000000e+00  1.3186291152323892e+00 8.2794520756642536e-07 0.0000000000000000e+00  1.2101792219873253e+00 5.5045314557167512e-10 0.0000000000000000e+00  1.2389894989999446e+00 -2.8778166252068668e-09 0.0000000000000000e+00  1.1419408024099822e+00 -1.1012520173576473e-08 0.0000000000000000e+00  1.0218142160249581e+00 1.1134763385808381e-07 0.0000000000000000e+00  1.1453787198574750e+00 -4.2388121283154297e-08 0.0000000000000000e+00  1.0725889931881336e+00 4.6684370208718555e-05 0.0000000000000000e+00  1.1280885838013148e+00 -1.1208590186870777e-07 0.0000000000000000e+00  1.1638654860255944e+00 -6.5019557620487071e-04 0.0000000000000000e+00  1.1151380935528157e+00 -1.8188790362366547e-07 0.0000000000000000e+00  1.1377630402749022e+00 -4.6427785076176873e-04 0.0000000000000000e+00  1.1237250114435267e+00 -3.4824274591738864e-05 0.0000000000000000e+00  1.1486018353085343e+00 1.6794516022194633e-10 0.0000000000000000e+00  1.3678714055516976e+00 -1.0940750605281860e-01 0.0000000000000000e+00  6.0217217544131718e-01 5.4916884446734082e-01 0.0000000000000000e+00  1.0693518266827067e+00 9.1048679833285559e-06 0.0000000000000000e+00  1.0377431133885155e+00 -1.1486748978695405e-01 0.0000000000000000e+00  1.4973422002923111e+00 -6.1046939304722292e-03 0.0000000000000000e+00  1.3948795592436634e+00 5.6316551088201316e-10 0.0000000000000000e+00  1.4866219058201944e+00 -1.2390125871906821e-09 0.0000000000000000e+00  6.3100389228252296e-01 -1.0426503788214639e-01 0.0000000000000000e+00  1.5427580673770767e+00 3.3013691350392366e-01 0.0000000000000000e+00  3.1529575255996495e-01 -2.9264954579024349e-01 0.0000000000000000e+00  1.2047720191474329e+00 7.8255618375177138e-02 0.0000000000000000e+00  9.3642687887866882e-01 2.5981159348104072e-05 0.0000000000000000e+00  1.4378957847399927e+00 9.6814874790463360e-05 0.0000000000000000e+00  9.1016796244170517e-01 1.2678716299046205e-06 0.0000000000000000e+00  8.4145835093523924e-01 1.5623503261055231e-05 0.0000000000000000e+00  8.2402955358099594e-01 1.9814940410515500e-10 0.0000000000000000e+00  1.1912536553968442e+00 1.0484713804486097e-02 0.0000000000000000e+00  7.6059923382372485e-01 8.0191505769185311e-08 0.0000000000000000e+00  1.7046552664758359e+00 -1.9353392211493320e-01 0.0000000000000000e+00  1.8947766371273413e+00 -1.1292840863708136e-02 0.0000000000000000e+00  1.4927321728012204e+00 2.1561347195222803e-05 0.0000000000000000e+00  9.3778986123455188e-01 -9.5665519749939284e-11 0.0000000000000000e+00  1.0145057438619485e+00 1.3244611165704991e-05 0.0000000000000000e+00  1.1809795046742286e+00 2.5565507805995147e-01 0.0000000000000000e+00  1.0042926068232063e+00 5.5254554290076940e-01 0.0000000000000000e+00  1.1462137080835140e+00 5.4731077201493117e-01 0.0000000000000000e+00  1.7654058236178258e+00 3.6636392686255390e-02 0.0000000000000000e+00  1.0984834011251960e+00 -5.7245207944939791e-01 0.0000000000000000e+00  1.7767197018448160e+00 4.6633084557192483e-01 0.0000000000000000e+00  1.1100433872685522e+00 1.1002035130011781e-01 0.0000000000000000e+00  1.2391559693923666e+00 -4.2150049273955281e-01 0.0000000000000000e+00  1.3646063950458747e+00 2.3095494952816195e-02 0.0000000000000000e+00  7.3383654624756922e-01 1.6875153258301481e-02 0.0000000000000000e+00  7.7348803404970912e-01 1.9730136489277189e-10 0.0000000000000000e+00  1.2967966769063757e+00 4.1894761968643830e-10 0.0000000000000000e+00  1.4790924088862236e+00 5.3038763033863818e-10 0.0000000000000000e+00  1.4062499997444953e+00 4.4258356771446767e-10 0.0000000000000000e+00  5.4983050945772316e-01 1.1471354588880989e-10 0.0000000000000000e+00  5.4983050972927794e-01 1.3558941821397571e-10 0.0000000000000000e+00  0.0000000000000000e+00 -4.2128125643605510e-16 0.0000000000000000e+00  1.1564934732035002e+00 -4.9536380238321173e-02 0.0000000000000000e+00  9.3257991809441110e-01 -1.0775199458304964e-01 0.0000000000000000e+00  0.0000000000000000e+00 2.0459355544820433e-15 0.0000000000000000e+00  7.4037983324889045e-01 1.1424595387260540e-01 0.0000000000000000e+00  5.2792958975450544e-01 5.4628640769769247e-02 0.0000000000000000e+00  0.0000000000000000e+00 6.5797211661558983e-16 0.0000000000000000e+00  1.0639871530004621e+00 2.3038132548101026e-01 0.0000000000000000e+00  6.5624999999999911e-01 0.0000000000000000e+00 0.0000000000000000e+00  1.6006485412485913e+00 -4.1480719610141309e-01 0.0000000000000000e+00  1.0905281034562078e+00 -1.0842102450988228e-01 0.0000000000000000e+00  1.1408323766378337e+00 -1.7077665625203570e-01 0.0000000000000000e+00  1.3080122136013692e+00 4.9474306869108908e-01 0.0000000000000000e+00  1.2801153773558009e+00 3.5770905852796830e-01 0.0000000000000000e+00  1.2507838862541016e+00 -5.3237127478649959e-01 0.0000000000000000e+00  1.1057129628846016e+00 -3.9285939912265233e-01 0.0000000000000000e+00  1.3244792629863742e+00 -4.1809933720873133e-01 0.0000000000000000e+00  1.6771313620315602e+00 -4.9625347863457869e-01 0.0000000000000000e+00  1.4144379025350300e+00 -5.7580485354249222e-01 0.0000000000000000e+00  1.3287947176638022e+00 6.3062005319558333e-10 0.0000000000000000e+00  1.4446590342068042e+00 7.2037487751791955e-10 0.0000000000000000e+00  1.4877530020799175e+00 7.6523534487138229e-10 0.0000000000000000e+00  1.0659981413495829e+00 4.3033462732093395e-10 0.0000000000000000e+00  6.7414314272713483e-01 1.5343421733478854e-10 0.0000000000000000e+00  1.3908869454963819e+00 5.1750543698765053e-10 0.0000000000000000e+00  1.3429285860596027e+00 6.6682791612400329e-10 0.0000000000000000e+00  1.3536530521896670e+00 -6.1420262981001672e-02 0.0000000000000000e+00  1.4320900963545526e+00 -3.9325385470062743e-02 0.0000000000000000e+00  1.4360265099625757e+00 -3.0531051596584022e-02 0.0000000000000000e+00  1.4737198898878141e+00 5.2291157729862159e-10 0.0000000000000000e+00  1.2806973291700925e+00 4.0671868093367115e-10 0.0000000000000000e+00  1.4062500002558969e+00 4.4271315153268703e-10 0.0000000000000000e+00  1.4609486760361148e+00 -2.5392884301394309e-09 0.0000000000000000e+00  1.4999715047449766e+00 -4.8329572114245618e-09 0.0000000000000000e+00  1.4051731435158910e+00 -6.6092787230668092e-09 0.0000000000000000e+00  1.3782500699103970e+00 -3.5241939047124984e-09 0.0000000000000000e+00  1.4430694640275779e+00 -1.0245888624093940e-08 0.0000000000000000e+00  1.4160915962398151e+00 -2.1196055075215436e-03 0.0000000000000000e+00  1.4997529610204836e+00 -2.8443037541186966e-03 0.0000000000000000e+00  1.4110212578381436e+00 -1.5881832998244762e-03 0.0000000000000000e+00  1.2401932704417118e+00 -2.4625813554279186e-01 0.0000000000000000e+00  1.2786634407192354e+00 -2.3894305273028121e-01 0.0000000000000000e+00  4.0789247400430795e-01 3.6484995250313412e-01 0.0000000000000000e+00  3.1674079859773524e-01 3.7856541770235441e-01 0.0000000000000000e+00  0.0000000000000000e+00 0.0000000000000000e+00 0.0000000000000000e+00  1.7801176084988263e-01 2.3166101933179914e-01 0.0000000000000000e+00  1.1260691690844968e-01 9.3752121783021267e-02 0.0000000000000000e+00  0.0000000000000000e+00 0.0000000000000000e+00 0.0000000000000000e+00  9.0803616082794547e-01 -5.6495099939806903e-01 0.0000000000000000e+00  1.4259431829659046e+00 5.8452097119871622e-05 0.0000000000000000e+00  1.4990427719642065e+00 5.2259651252787994e-05 0.0000000000000000e+00  1.4983066461592978e+00 6.9225431457339151e-05 0.0000000000000000e+00  1.3923825387771043e+00 3.3567352408046071e-06 0.0000000000000000e+00  1.4741770098770279e+00 6.3219286840411208e-06 0.0000000000000000e+00  1.4961340496064186e+00 3.5426938974876908e-06 0.0000000000000000e+00  1.1140887945249960e+00 1.1456997953166335e-06 0.0000000000000000e+00  1.3413219204504665e+00 7.8500516688595263e-07 0.0000000000000000e+00  6.1779660281935678e-01 1.5859122758966629e-05 0.0000000000000000e+00  6.1782360114397306e-01 1.2099252789234721e-05 0.0000000000000000e+00  0.0000000000000000e+00 0.0000000000000000e+00 0.0000000000000000e+00  1.3636140051688046e+00 7.5655472996420954e-05 0.0000000000000000e+00  1.3177737896679811e+00 7.0837429603078114e-05 0.0000000000000000e+00  1.4797174074555077e+00 9.7297324308992300e-05 0.0000000000000000e+00  1.0985751357366886e+00 2.9925472982232420e-05 0.0000000000000000e+00  1.3781290096473502e+00 3.7830906001105067e-05 0.0000000000000000e+00  6.5530390371161507e-01 -4.9429165901009358e-06 0.0000000000000000e+00  5.8199191095085101e-01 -5.0572888010402037e-08 0.0000000000000000e+00  5.8199186923395707e-01 3.6687792179442019e-09 0.0000000000000000e+00  0.0000000000000000e+00 0.0000000000000000e+00 0.0000000000000000e+00  1.3757962757903290e+00 1.5279801822799724e-07 0.0000000000000000e+00  1.4964882571901437e+00 6.7924618184771196e-07 0.0000000000000000e+00  1.0697412083530771e+00 -1.3033369759438570e-07 0.0000000000000000e+00  1.3996017311293059e+00 -2.1930971934745997e-07 0.0000000000000000e+00  6.4888551792029159e-01 -6.7508026629012649e-08 0.0000000000000000e+00  6.5525103757795933e-01 -5.7292085309064567e-05 0.0000000000000000e+00  0.0000000000000000e+00 -8.4375894903563926e-16 0.0000000000000000e+00  1.4054539341790444e+00 -7.4215235978692567e-05 0.0000000000000000e+00  1.4981744261949257e+00 5.3232494056573289e-05 0.0000000000000000e+00  1.1308409994219368e+00 -1.9066592810958183e-04 0.0000000000000000e+00  1.4090186651792176e+00 -3.4507770857005252e-04 0.0000000000000000e+00  6.6585416554416743e-01 -1.5076999085038777e-04 0.0000000000000000e+00  6.4888562581025200e-01 -5.4212115797676142e-08 0.0000000000000000e+00  0.0000000000000000e+00 0.0000000000000000e+00 0.0000000000000000e+00  1.4031644486566046e+00 -2.7009714786214062e-07 0.0000000000000000e+00  1.4999411938601059e+00 -2.6185594974951522e-07 0.0000000000000000e+00  1.1216410523020581e+00 -1.5401616943174823e-07 0.0000000000000000e+00  1.4064125898561146e+00 -2.2839213992475055e-07 0.0000000000000000e+00  6.5856961845042761e-01 -3.9014238588632025e-08 0.0000000000000000e+00  1.3930664991854889e+00 2.8579072973935353e-10 0.0000000000000000e+00  1.4994286257219476e+00 2.8931868308365064e-10 0.0000000000000000e+00  6.8374664676246699e-01 -2.2218640087124900e-09 0.0000000000000000e+00  6.8374664411064923e-01 -8.0368589500014337e-10 0.0000000000000000e+00  0.0000000000000000e+00 0.0000000000000000e+00 0.0000000000000000e+00  1.3878966715483707e+00 -2.0527095274381950e-08 0.0000000000000000e+00  1.4999230804270276e+00 -2.5896487762979461e-08 0.0000000000000000e+00  5.2278400204845210e-01 -5.2880179769344002e-09 0.0000000000000000e+00  5.2278399275696386e-01 -2.6281285748981791e-09 0.0000000000000000e+00  0.0000000000000000e+00 0.0000000000000000e+00 0.0000000000000000e+00  1.0547575567210310e+00 -9.4440617441016256e-09 0.0000000000000000e+00  1.3236896161978657e+00 -3.3925319899229844e-08 0.0000000000000000e+00  6.2110991347162636e-01 -2.2573022696665928e-08 0.0000000000000000e+00  6.2110987999371303e-01 -1.3456341966615705e-08 0.0000000000000000e+00  0.0000000000000000e+00 0.0000000000000000e+00 0.0000000000000000e+00  1.0081938985944696e+00 -2.9450537052584565e-08 0.0000000000000000e+00  1.3639553392404269e+00 -6.2966031252851752e-08 0.0000000000000000e+00  1.3943928710798696e+00 -1.2238674872003731e-07 0.0000000000000000e+00  1.4981010497662437e+00 -9.9056388242919098e-08 0.0000000000000000e+00  6.8551065913100351e-01 -1.1235844078945655e-03 0.0000000000000000e+00  6.8431152666584927e-01 -3.1767635296672499e-04 0.0000000000000000e+00  0.0000000000000000e+00 0.0000000000000000e+00 0.0000000000000000e+00  1.4141413557925182e+00 -5.1913248868803797e-03 0.0000000000000000e+00  1.4206117741741793e+00 -1.8332008889437536e-03 0.0000000000000000e+00  6.5070943756312638e-01 -5.5284923770190099e-08 0.0000000000000000e+00  6.5070935672292451e-01 -3.9297349521609599e-08 0.0000000000000000e+00  0.0000000000000000e+00 0.0000000000000000e+00 0.0000000000000000e+00  1.0976429885457486e+00 -9.4041597224106558e-08 0.0000000000000000e+00  1.4044876346150805e+00 -1.8667595782666784e-07 0.0000000000000000e+00  1.4050131870193909e+00 -2.4860399646832148e-07 0.0000000000000000e+00  1.4999986904237557e+00 -2.4546222172052893e-07 0.0000000000000000e+00  6.6338224940413304e-01 -2.8996646001616588e-05 0.0000000000000000e+00  6.6335285697063939e-01 3.3633274962133575e-05 0.0000000000000000e+00  0.0000000000000000e+00 0.0000000000000000e+00 0.0000000000000000e+00  1.1485899181645796e+00 -5.9525374216661616e-04 0.0000000000000000e+00  1.4137363548975617e+00 -5.6910183734891636e-04 0.0000000000000000e+00  1.4092857775822258e+00 -1.0815738086115760e-04 0.0000000000000000e+00  1.5000803934741673e+00 -4.3991889987107281e-04 0.0000000000000000e+00  6.1566336450702341e-01 -5.5944070082595874e-08 0.0000000000000000e+00  6.1566326252342485e-01 -6.2894704323266584e-08 0.0000000000000000e+00  0.0000000000000000e+00 0.0000000000000000e+00 0.0000000000000000e+00  1.0939550467085171e+00 -1.7460321066904648e-07 0.0000000000000000e+00  1.3930569830793462e+00 -2