<?xml version="1.0"?>
<VTKFile type="UnstructuredGrid"  version="0.1"  >
<UnstructuredGrid>
<Piece  NumberOfPoints="525" NumberOfCells="924">
<Points>
<DataArray  type="Float64"  NumberOfComponents="3"  format="ascii">0 0 0  2.2 0 0  2.2 0.41 0  0 0.41 0  0.15 0.2 0  0.25 0.2 0  0.2 0.15 0  0.2 0.25 0  0.104762 0 0  0.209524 0 0  0.314286 0 0  0.419048 0 0  0.52381 0 0  0.628571 0 0  0.733333 0 0  0.838095 0 0  0.9428569999999999 0 0  1.04762 0 0  1.15238 0 0  1.25714 0 0  1.3619 0 0  1.46667 0 0  1.57143 0 0  1.67619 0 0  1.78095 0 0  1.88571 0 0  1.99048 0 0  2.09524 0 0  2.2 0.1025 0  2.2 0.205 0  2.2 0.3075 0  2.1 0.41 0  2 0.41 0  1.9 0.41 0  1.8 0.41 0  1.7 0.41 0  1.6 0.41 0  1.5 0.41 0  1.4 0.41 0  1.3 0.41 0  1.2 0.41 0  1.1 0.41 0  1 0.41 0  0.9 0.41 0  0.8 0.41 0  0.7 0.41 0  0.6 0.41 0  0.5 0.41 0  0.4 0.41 0  0.3 0.41 0  0.2 0.41 0  0.1 0.41 0  0 0.3075 0  0 0.205 0  0 0.1025 0  0.1566987973585577 0.2250001169958213 0  0.1749998830041787 0.2433012026414423 0  0.2250001169958213 0.2433012026414423 0  0.2433012026414423 0.2250001169958213 0  0.2433012026414423 0.1749998830041787 0  0.2250001169958213 0.1566987973585577 0  0.1749998830041787 0.1566987973585577 0  0.1566987973585577 0.1749998830041787 0  0.352033 0.262216 0  1.04579 0.252253 0  1.24065 0.243419 0  0.985775 0.171509 0  1.30324 0.187395 0  0.890988 0.190768 0  1.39085 0.202767 0  0.801464 0.204685 0  1.49904 0.204666 0  0.704267 0.202289 0  1.60238 0.204951 0  0.487789 0.19191 0  1.72935 0.219637 0  1.83335 0.187427 0  2.03359 0.193642 0  0.314663 0.307348 0  0.249039 0.333583 0  2.12147 0.253405 0  2.06373 0.0836837 0  0.0734726 0.267055 0  0.143989 0.0677174 0  0.0613613 0.33781 0  0.299628 0.236829 0  0.527114 0.295386 0  0.262384 0.26549 0  0.275777 0.18341 0  1.74578 0.330928 0  1.84001 0.302448 0  1.64998 0.313838 0  0.648421 0.302367 0  1.54544 0.308508 0  0.755686 0.306156 0  1.42668 0.314809 0  0.870524 0.298596 0  1.22553 0.112785 0  1.05603 0.147372 0  0.969346 0.329867 0  1.32527 0.276284 0  2.02914 0.29511 0  1.88168 0.119486 0  1.79545 0.104842 0  1.35688 0.0892539 0  1.69041 0.105324 0  0.914199 0.09555660000000001 0  1.58234 0.102923 0  0.61843 0.10815 0  1.47999 0.101161 0  0.725217 0.104273 0  0.821727 0.102306 0  1.96725 0.105778 0  0.418624 0.241547 0  0.135226 0.239087 0  1.14921 0.314841 0  0.404508 0.333259 0  0.590155 0.206269 0  2.12554 0.150731 0  1.93166 0.22436 0  0.104689 0.190046 0  0.267856 0.07447529999999999 0  0.269368 0.221581 0  0.434446 0.114927 0  1.0089 0.07933809999999999 0  0.953023 0.246698 0  1.25853 0.33355 0  1.05268 0.340828 0  2.1369 0.067383 0  0.522398 0.112537 0  1.3421 0.348929 0  0.215186 0.289473 0  0.203197 0.335348 0  1.13984 0.190728 0  1.93813 0.330504 0  1.10505 0.0883705 0  0.341988 0.0824728 0  0.253113 0.138035 0  0.291932 0.131907 0  0.203713 0.102439 0  0.150375 0.134668 0  0.151494 0.309119 0  0.354384 0.17896 0  0.06853670000000001 0.100776 0  0.424128 0.180088 0  0.474925 0.0568661 0  2.10843 0.347669 0  2.160735 0.2804525 0  2.160735 0.2292025 0  2.2 0.25625 0  2.079485 0.04184185 0  2.027105 0.04184185 0  2.04286 0 0  0.1767565 0.0338587 0  0.1243755 0.0338587 0  0.157143 0 0  0.08068065000000001 0.373905 0  0.03068065 0.373905 0  0.05 0.41 0  0.03068065 0.322655 0  0 0.35875 0  0.281851 0.3204655 0  0.2745195 0.3717915 0  0.3073315 0.358674 0  0.06741695 0.3024325 0  0.0367363 0.2872775 0  0.3071455 0.2720885 0  0.3258305 0.2495225 0  0.333348 0.284782 0  0.2557115 0.2995365 0  0.2885235 0.286419 0  2.075305 0.2742575 0  2.031365 0.244376 0  2.07753 0.2235235 0  2.01549 0.09473085000000001 0  1.978865 0.052889 0  2.00042 0.14971 0  2.04866 0.13866285 0  0.472869 0.2684665 0  0.4532065 0.2167285 0  0.5074514999999999 0.243648 0  2.16277 0.1778655 0  2.16277 0.1266155 0  2.2 0.15375 0  1.90667 0.171923 0  1.882505 0.2058935 0  1.857515 0.1534565 0  1.885835 0.263404 0  1.83668 0.2449375 0  0.6042925 0.1572095 0  0.647211 0.204279 0  0.6613485 0.1552195 0  0.3595855 0.3203035 0  0.3782705 0.2977375 0  0.155113 0.241194 0  0.1459625 0.2320435 0  0.1646446609406726 0.2353553390593274 0  0.259539 0.179205 0  0.2628885 0.191705 0  0.2482962819455563 0.1870590127797247 0  0.281006 0.2511595 0  1.0209025 0.1594405 0  1.05091 0.1998125 0  1.0157825 0.211881 0  1.264385 0.15009 0  1.23309 0.178102 0  1.271945 0.215407 0  1.291205 0.10101945 0  1.33006 0.13832445 0  0.928528 0.0477783 0  0.876147 0.0477783 0  0.890476 0 0  0.9025935 0.1431623 0  0.9499869999999999 0.1335328 0  0.9383815 0.1811385 0  0.867963 0.0989313 0  0.8563575 0.146537 0  0.8299110000000001 0.051153 0  1.411775 0.04462695 0  1.35939 0.04462695 0  1.414285 0 0  1.373865 0.14601045 0  1.347045 0.195081 0  1.418435 0.09520745 0  1.43542 0.151964 0  1.47333 0.0505805 0  0.7775300000000001 0.051153 0  0.785714 0 0  0.8115954999999999 0.1534955 0  0.8462259999999999 0.1977265 0  0.7734719999999999 0.1032895 0  0.7633405 0.154479 0  0.729275 0.0521365 0  1.52571 0.0505805 0  1.51905 0 0  1.489515 0.1529135 0  1.444945 0.2037165 0  1.531165 0.102042 0  1.54069 0.1537945 0  1.576885 0.0514615 0  1.9804 0.259735 0  1.982625 0.209001 0  1.820005 0.356224 0  1.870005 0.356224 0  1.85 0.41 0  1.78468 0.2610425 0  1.78135 0.203532 0  1.72289 0.370464 0  1.77289 0.370464 0  1.75 0.41 0  1.792895 0.316688 0  1.737565 0.2752825 0  1.62499 0.361919 0  1.67499 0.361919 0  1.65 0.41 0  1.69788 0.322383 0  1.689665 0.2667375 0  1.62618 0.2593945 0  1.665865 0.212294 0  0.6242105 0.3561835 0  0.6742105 0.3561835 0  0.6499999999999999 0.41 0  0.6192880000000001 0.254318 0  0.6763440000000001 0.252328 0  1.52272 0.359254 0  1.57272 0.359254 0  1.55 0.41 0  1.59771 0.311173 0  1.57391 0.2567295 0  1.52224 0.256587 0  1.55071 0.2048085 0  0.727843 0.358078 0  0.7778430000000001 0.358078 0  0.75 0.41 0  0.7020535 0.3042615 0  0.7299765 0.2542225 0  0.778575 0.2554205 0  0.7528655 0.203487 0  1.41334 0.3624045 0  1.46334 0.3624045 0  1.45 0.41 0  1.48606 0.3116585 0  1.46286 0.2597375 0  1.408765 0.258788 0  0.8352619999999999 0.354298 0  0.885262 0.354298 0  0.8500000000000001 0.41 0  0.813105 0.302376 0  0.8359939999999999 0.2516405 0  0.880756 0.244682 0  0.9346730000000001 0.3699335 0  0.984673 0.3699335 0  0.95 0.41 0  0.9199349999999999 0.3142315 0  0.676894 0.0521365 0  0.680952 0 0  0.714742 0.153281 0  0.6718235 0.1062115 0  0.6235005 0.054075 0  1.629265 0.0514615 0  1.62381 0 0  1.59236 0.153937 0  1.636375 0.1041235 0  1.646395 0.1551375 0  1.6833 0.052662 0  1.73568 0.052662 0  1.72857 0 0  1.70988 0.1624805 0  1.74293 0.105083 0  1.7624 0.1622395 0  1.7882 0.052421 0  1.84058 0.052421 0  1.83333 0 0  1.8144 0.1461345 0  1.838565 0.112164 0  1.883695 0.059743 0  1.124605 0.3624205 0  1.174605 0.3624205 0  1.15 0.41 0  1.314255 0.2318395 0  1.28296 0.2598515 0  1.35806 0.2395255 0  1.375975 0.2955465 0  1.92648 0.052889 0  1.938095 0 0  1.924465 0.112632 0  1.949455 0.165069 0  0.352254 0.3716295 0  0.402254 0.3716295 0  0.35 0.41 0  0.513557 0.352693 0  0.563557 0.352693 0  0.55 0.41 0  0.5877675 0.2988765 0  0.5586344999999999 0.2508275 0  0.538972 0.1990895 0  0.452254 0.3716295 0  0.45 0.41 0  0.465811 0.3143225 0  0.411566 0.287403 0  0.3853285 0.2518815 0  0.1199575 0.2145665 0  0.0890808 0.2285505 0  0.1043493 0.253071 0  0.2245195 0.3717915 0  0.25 0.41 0  0.291071 0.03723765 0  0.23869 0.03723765 0  0.261905 0 0  0.265876 0.2435355 0  0.2563345 0.2232905 0  0.2528425 0.245245 0  0.284498 0.229205 0  1.032465 0.11335505 0  0.9973375 0.12542355 0  0.9615494999999999 0.08744735000000001 0  0.9220055 0.218733 0  0.9693989999999999 0.2091035 0  0.9611845 0.2882825 0  0.9117735 0.272647 0  1.229265 0.371775 0  1.279265 0.371775 0  1.25 0.41 0  1.02634 0.375414 0  1.07634 0.375414 0  1.05 0.41 0  1.011013 0.3353475 0  2.11607 0.0336915 0  2.16845 0.0336915 0  2.14762 0 0  2.16845 0.0849415 0  2.2 0.05125 0  2.100315 0.07553335 0  0.5562765000000001 0.159403 0  0.570414 0.1103435 0  0.5050935 0.1522235 0  1.32105 0.3794645 0  1.37105 0.3794645 0  1.35 0.41 0  1.333685 0.3126065 0  1.38439 0.331869 0  0.9994065 0.2494755 0  1.007568 0.29106 0  1.300315 0.3412395 0  1.2919 0.304917 0  2.13122 0.109057 0  2.094635 0.11720735 0  0.2725725 0.2024955 0  0.259684 0.2107905 0  0.2482962819455563 0.2129409872202754 0  0.2877025 0.2101195 0  2.123505 0.202068 0  2.079565 0.1721865 0  1.02826 0.03966905 0  0.9758784999999999 0.03966905 0  0.9952384999999999 0 0  1.049235 0.2965405 0  1.100945 0.3278345 0  1.0975 0.283547 0  0.5711200000000001 0.054075 0  0.5761905 0 0  0.523104 0.0562685 0  1.24959 0.2884845 0  1.20387 0.3241955 0  1.19493 0.27913 0  0.238785 0.2774815 0  0.2321125 0.311528 0  0.226118 0.3344655 0  0.2015985 0.3726739999999999 0  1.144525 0.2527845 0  1.190245 0.2170735 0  1.092815 0.2214905 0  0.2091915 0.3124105 0  0.220093 0.266387 0  0.243692 0.2543955 0  0.2353553390593274 0.2353553390593274 0  0.478422 0.113732 0  0.4611175 0.1534185 0  1.919065 0.370252 0  1.969065 0.370252 0  1.95 0.41 0  1.983635 0.312807 0  2.01457 0.352555 0  1.88907 0.316476 0  1.934895 0.277432 0  1.182685 0.1517565 0  1.097935 0.16905 0  1.128715 0.04418525 0  1.076335 0.04418525 0  1.1 0 0  1.056975 0.08385429999999999 0  1.08054 0.11787125 0  1.122445 0.13954925 0  1.16529 0.10057775 0  0.304922 0.07847404999999999 0  0.328137 0.0412364 0  0.380518 0.0412364 0  0.366667 0 0  0.388217 0.09869990000000001 0  0.426747 0.0574635 0  0.31696 0.1071899 0  0.279894 0.10319115 0  0.2725225 0.134971 0  0.2604845 0.10625515 0  0.228413 0.120237 0  0.2143565 0.129569 0  0.2390565 0.147367 0  1.30701 0.04462695 0  1.30952 0 0  1.241335 0.0563925 0  0.2357845 0.08845715 0  1.188955 0.0563925 0  1.20476 0 0  0.2066185 0.0512195 0  0.173851 0.08507819999999999 0  0.0367363 0.2360275 0  0 0.25625 0  0.264445 0.1607225 0  0.248207 0.1565175 0  0.2353553390593274 0.1646446609406726 0  0.2838545 0.1576585 0  0.130694 0.182523 0  0.1273445 0.195023 0  0.1517037180544437 0.1870590127797247 0  0.127532 0.162357 0  0.153537 0.154834 0  0.0523445 0.197523 0  0
[...]
<PointData  Vectors="u"> 
<DataArray  type="Float64"  Name="u"  NumberOfComponents="3" format="ascii">0.0000000000000000e+00 1.5112280005990883e-15 0.0000000000000000e+00  0.0000000000000000e+00 0.0000000000000000e+00 0.0000000000000000e+00  0.0000000000000000e+00 0.0000000000000000e+00 0.0000000000000000e+00  -3.5487923699611820e-16 -7.6669296472692702e-16 0.0000000000000000e+00  0.0000000000000000e+00 0.0000000000000000e+00 0.0000000000000000e+00  0.0000000000000000e+00 0.0000000000000000e+00 0.0000000000000000e+00  0.0000000000000000e+00 0.0000000000000000e+00 0.0000000000000000e+00  0.0000000000000000e+00 0.0000000000000000e+00 0.0000000000000000e+00  0.0000000000000000e+00 3.8565400461617749e-16 0.0000000000000000e+00  0.0000000000000000e+00 2.7234951431306961e-15 0.0000000000000000e+00  0.0000000000000000e+00 0.0000000000000000e+00 0.0000000000000000e+00  0.0000000000000000e+00 -1.0381962665517855e-15 0.0000000000000000e+00  0.0000000000000000e+00 0.0000000000000000e+00 0.0000000000000000e+00  0.0000000000000000e+00 5.0649858624185078e-16 0.0000000000000000e+00  0.0000000000000000e+00 7.7920698252807442e-16 0.0000000000000000e+00  0.0000000000000000e+00 0.0000000000000000e+00 0.0000000000000000e+00  0.0000000000000000e+00 4.6065136998382988e-16 0.0000000000000000e+00  0.0000000000000000e+00 0.0000000000000000e+00 0.0000000000000000e+00  0.0000000000000000e+00 0.0000000000000000e+00 0.0000000000000000e+00  0.0000000000000000e+00 3.1331811371714564e-16 0.0000000000000000e+00  0.0000000000000000e+00 0.0000000000000000e+00 0.0000000000000000e+00  -6.5893879587646828e-16 5.1291507977337334e-16 0.0000000000000000e+00  3.8949397051946803e-16 0.0000000000000000e+00 0.0000000000000000e+00  0.0000000000000000e+00 0.0000000000000000e+00 0.0000000000000000e+00  0.0000000000000000e+00 4.9544471272200317e-16 0.0000000000000000e+00  0.0000000000000000e+00 0.0000000000000000e+00 0.0000000000000000e+00  0.0000000000000000e+00 0.0000000000000000e+00 0.0000000000000000e+00  0.0000000000000000e+00 0.0000000000000000e+00 0.0000000000000000e+00  1.1250000003584779e+00 3.0454750163544410e-10 0.0000000000000000e+00  1.5000000000001448e+00 4.9440878663224109e-10 0.0000000000000000e+00  1.1249999996417459e+00 3.0411023764324987e-10 0.0000000000000000e+00  3.1196557416600568e-16 0.0000000000000000e+00 0.0000000000000000e+00  0.0000000000000000e+00 -5.2997334851453744e-16 0.0000000000000000e+00  3.3480400404467052e-16 7.2356309807504085e-16 0.0000000000000000e+00  0.0000000000000000e+00 0.0000000000000000e+00 0.0000000000000000e+00  0.0000000000000000e+00 0.0000000000000000e+00 0.0000000000000000e+00  0.0000000000000000e+00 0.0000000000000000e+00 0.0000000000000000e+00  0.0000000000000000e+00 0.0000000000000000e+00 0.0000000000000000e+00  0.0000000000000000e+00 0.0000000000000000e+00 0.0000000000000000e+00  0.0000000000000000e+00 3.3716649114784010e-16 0.0000000000000000e+00  0.0000000000000000e+00 -1.0883076334401545e-15 0.0000000000000000e+00  0.0000000000000000e+00 0.0000000000000000e+00 0.0000000000000000e+00  0.0000000000000000e+00 7.0947942112417851e-16 0.0000000000000000e+00  0.0000000000000000e+00 7.4791721680440675e-16 0.0000000000000000e+00  0.0000000000000000e+00 0.0000000000000000e+00 0.0000000000000000e+00  0.0000000000000000e+00 -1.0705771894213096e-15 0.0000000000000000e+00  0.0000000000000000e+00 0.0000000000000000e+00 0.0000000000000000e+00  0.0000000000000000e+00 0.0000000000000000e+00 0.0000000000000000e+00  0.0000000000000000e+00 0.0000000000000000e+00 0.0000000000000000e+00  0.0000000000000000e+00 0.0000000000000000e+00 0.0000000000000000e+00  0.0000000000000000e+00 -6.6079104546060676e-16 0.0000000000000000e+00  0.0000000000000000e+00 0.0000000000000000e+00 0.0000000000000000e+00  1.1249999999999996e+00 0.0000000000000000e+00 0.0000000000000000e+00  1.5000000000000007e+00 0.0000000000000000e+00 0.0000000000000000e+00  1.1249999999999989e+00 5.2880138525010182e-16 0.0000000000000000e+00  0.0000000000000000e+00 0.0000000000000000e+00 0.0000000000000000e+00  -1.7153430570999976e-15 -1.0720892089744461e-15 0.0000000000000000e+00  0.0000000000000000e+00 0.0000000000000000e+00 0.0000000000000000e+00  0.0000000000000000e+00 0.0000000000000000e+00 0.0000000000000000e+00  0.0000000000000000e+00 0.0000000000000000e+00 0.0000000000000000e+00  -4.2115238026357876e-16 0.0000000000000000e+00 0.0000000000000000e+00  0.0000000000000000e+00 0.0000000000000000e+00 0.0000000000000000e+00  0.0000000000000000e+00 0.0000000000000000e+00 0.0000000000000000e+00  1.2548602842047325e+00 -3.2692190557036388e-01 0.0000000000000000e+00  1.4202797633996809e+00 4.9574637930013640e-05 0.0000000000000000e+00  1.4473151237623578e+00 5.3803265296086702e-06 0.0000000000000000e+00  1.4599981060024450e+00 7.7367145641170978e-05 0.0000000000000000e+00  1.4889375273387744e+00 1.9639770044685576e-06 0.0000000000000000e+00  1.4928172010572247e+00 9.8215079798270673e-05 0.0000000000000000e+00  1.4998220107348872e+00 3.9715852343069383e-08 0.0000000000000000e+00  1.5000918821994915e+00 -8.2522918206647740e-05 0.0000000000000000e+00  1.4999960166089563e+00 -2.9917290244332306e-07 0.0000000000000000e+00  1.4999141057592702e+00 -1.1681419978470766e-03 0.0000000000000000e+00  1.4999999142680271e+00 -1.7362942494913997e-07 0.0000000000000000e+00  1.4591274074408185e+00 -8.1701506656593047e-03 0.0000000000000000e+00  1.4923530657183717e+00 -4.9475510477361797e-08 0.0000000000000000e+00  1.4889776195611142e+00 -1.1715958834481074e-08 0.0000000000000000e+00  1.4953954493972845e+00 7.6032982632489679e-10 0.0000000000000000e+00  1.4284870163247745e+00 -4.2929702888837640e-01 0.0000000000000000e+00  1.7554143611165860e+00 -2.7565274935031736e-01 0.0000000000000000e+00  1.4163696358126141e+00 5.9023724950625545e-10 0.0000000000000000e+00  9.7468252404227762e-01 3.7051883715147305e-10 0.0000000000000000e+00  1.2752494853597287e+00 5.6412626697274604e-01 0.0000000000000000e+00  1.5558736101308615e+00 -2.9607218769824961e-01 0.0000000000000000e+00  1.0826454923260105e+00 2.9463663212101482e-01 0.0000000000000000e+00  8.2734145075236931e-01 -4.1545130241309725e-01 0.0000000000000000e+00  1.2183924240061570e+00 -2.3618459025433438e-02 0.0000000000000000e+00  1.1314684997985194e+00 -6.1009545311775526e-01 0.0000000000000000e+00  3.4045826576258781e-01 2.2143994809793888e-01 0.0000000000000000e+00  9.3398474650085073e-01 -1.3838233900612701e-08 0.0000000000000000e+00  1.1610548733829185e+00 -5.5540669209931378e-09 0.0000000000000000e+00  1.0771906650827745e+00 -5.6454448025042437e-08 0.0000000000000000e+00  1.1629135014535446e+00 -2.1439065768387847e-03 0.0000000000000000e+00  1.1175883381082454e+00 -1.4137253383256431e-07 0.0000000000000000e+00  1.1346716889637256e+00 -7.8541812330155622e-05 0.0000000000000000e+00  1.0696131963519360e+00 -1.4547836817022499e-07 0.0000000000000000e+00  1.1871708343700895e+00 9.7955276263956772e-05 0.0000000000000000e+00  1.1964831735299235e+00 4.2604452761083163e-06 0.0000000000000000e+00  1.3814888509824210e+00 4.1361072809222890e-05 0.0000000000000000e+00  9.4340109638103775e-01 4.0736280880337805e-05 0.0000000000000000e+00  1.3186291139815907e+00 8.2972702430270942e-07 0.0000000000000000e+00  1.2101792219878216e+00 5.4960223373569918e-10 0.0000000000000000e+00  1.2389894989953152e+00 -2.8828956194309038e-09 0.0000000000000000e+00  1.1419408023979802e+00 -1.1021195402796775e-08 0.0000000000000000e+00  1.0218142169607618e+00 1.1207274731620867e-07 0.0000000000000000e+00  1.1453787198317742e+00 -4.2400483941582723e-08 0.0000000000000000e+00  1.0725889624645761e+00 4.6636522564923888e-05 0.0000000000000000e+00  1.1280885837786547e+00 -1.1207005138013798e-07 0.0000000000000000e+00  1.1638633708407340e+00 -6.5197518163664871e-04 0.0000000000000000e+00  1.1151380936606485e+00 -1.8171900779130762e-07 0.0000000000000000e+00  1.1377623178345506e+00 -4.6490685310653221e-04 0.0000000000000000e+00  1.1237248128038162e+00 -3.5029048264718542e-05 0.0000000000000000e+00  1.1486018353070011e+00 1.6625488086444282e-10 0.0000000000000000e+00  1.3678815086791305e+00 -1.0939260002220394e-01 0.0000000000000000e+00  6.0209954425747958e-01 5.4908229521839480e-01 0.0000000000000000e+00  1.0693518188012812e+00 9.1087639213519759e-06 0.0000000000000000e+00  1.0377355990041701e+00 -1.1485747269945970e-01 0.0000000000000000e+00  1.4973428883894300e+00 -6.1071793995256078e-03 0.0000000000000000e+00  1.3948795592436951e+00 5.6285121006073273e-10 0.0000000000000000e+00  1.4866219058209207e+00 -1.2435913884931065e-09 0.0000000000000000e+00  6.3098172084509374e-01 -1.0434315560389501e-01 0.0000000000000000e+00  1.5427791935118109e+00 3.3017108915892274e-01 0.0000000000000000e+00  3.1529540968747516e-01 -2.9261493342970912e-01 0.0000000000000000e+00  1.2047682214113242e+00 7.8250356540014457e-02 0.0000000000000000e+00  9.3642688899425375e-01 2.5978410088098087e-05 0.0000000000000000e+00  1.4378957917610038e+00 9.6762355153957045e-05 0.0000000000000000e+00  9.1016795949938512e-01 1.2693676343626368e-06 0.0000000000000000e+00  8.4145833920305779e-01 1.5624761515277091e-05 0.0000000000000000e+00  8.2402955358114915e-01 1.9806601665763802e-10 0.0000000000000000e+00  1.1912496938654555e+00 1.0480880336291706e-02 0.0000000000000000e+00  7.6059923287401632e-01 8.0643874025696197e-08 0.0000000000000000e+00  1.7045720678683736e+00 -1.9355588109290076e-01 0.0000000000000000e+00  1.8947440792043333e+00 -1.1308107460715309e-02 0.0000000000000000e+00  1.4927321742985171e+00 2.1568395101242810e-05 0.0000000000000000e+00  9.3778986123676067e-01 -9.7186550072442696e-11 0.0000000000000000e+00  1.0145057540948326e+00 1.3248168931145276e-05 0.0000000000000000e+00  1.1809711792482918e+00 2.5565985659681467e-01 0.0000000000000000e+00  1.0043556521600161e+00 5.5262544155871718e-01 0.0000000000000000e+00  1.1462531592969085e+00 5.4736926783191597e-01 0.0000000000000000e+00  1.7654741356431021e+00 3.6667856020109003e-02 0.0000000000000000e+00  1.0985013045134386e+00 -5.7247503311240133e-01 0.0000000000000000e+00  1.7766912566331234e+00 4.6630864494241175e-01 0.0000000000000000e+00  1.1100754165648004e+00 1.1004710701115332e-01 0.0000000000000000e+00  1.2391718429213257e+00 -4.2154133345787470e-01 0.0000000000000000e+00  1.3646173688300425e+00 2.3098834946960332e-02 0.0000000000000000e+00  7.3382879315909733e-01 1.6872528626283818e-02 0.0000000000000000e+00  7.7348803404963085e-01 1.9720986491327337e-10 0.0000000000000000e+00  1.2967966769062238e+00 4.1876177081209536e-10 0.0000000000000000e+00  1.4790924088861634e+00 5.3013672113339343e-10 0.0000000000000000e+00  1.4062499997443507e+00 4.4239005684451753e-10 0.0000000000000000e+00  5.4983050945773815e-01 1.1465011215523708e-10 0.0000000000000000e+00  5.4983050972905256e-01 1.3544671259717712e-10 0.0000000000000000e+00  0.0000000000000000e+00 -5.9210825042181131e-16 0.0000000000000000e+00  1.1565380000695162e+00 -4.9533328419349133e-02 0.0000000000000000e+00  9.3261885612942630e-01 -1.0775824108662295e-01 0.0000000000000000e+00  0.0000000000000000e+00 2.5347701277891545e-15 0.0000000000000000e+00  7.4038206358437775e-01 1.1424609203100698e-01 0.0000000000000000e+00  5.2793048817726007e-01 5.4629682211958103e-02 0.0000000000000000e+00  0.0000000000000000e+00 7.3585965851390749e-16 0.0000000000000000e+00  1.0639875622395678e+00 2.3038405521575558e-01 0.0000000000000000e+00  6.5624999999999944e-01 0.0000000000000000e+00 0.0000000000000000e+00  1.6006005774524812e+00 -4.1480154215656578e-01 0.0000000000000000e+00  1.0905038385581636e+00 -1.0842210987636369e-01 0.0000000000000000e+00  1.1408037934541144e+00 -1.7077286477173617e-01 0.0000000000000000e+00  1.3080090692806203e+00 4.9474065190831185e-01 0.0000000000000000e+00  1.2801141471807929e+00 3.5771047392728650e-01 0.0000000000000000e+00  1.2507595012103827e+00 -5.3233211076376052e-01 0.0000000000000000e+00  1.1057151339376763e+00 -3.9280992655983282e-01 0.0000000000000000e+00  1.3244604362497052e+00 -4.1806491167755538e-01 0.0000000000000000e+00  1.6770677322724203e+00 -4.9625388319177272e-01 0.0000000000000000e+00  1.4143936964866903e+00 -5.7578047715892644e-01 0.0000000000000000e+00  1.3287947176639165e+00 6.3006538494966729e-10 0.0000000000000000e+00  1.4446590342070820e+00 7.1910454929395950e-10 0.0000000000000000e+00  1.4877530020799541e+00 7.6452207741722679e-10 0.0000000000000000e+00  1.0659981413489372e+00 4.2957634583705336e-10 0.0000000000000000e+00  6.7414314272627784e-01 1.5298640990619430e-10 0.0000000000000000e+00  1.3908869454956874e+00 5.1576551089810827e-10 0.0000000000000000e+00  1.3429285860593165e+00 6.6599710575504850e-10 0.0000000000000000e+00  1.3536575971216862e+00 -6.1415206577887189e-02 0.0000000000000000e+00  1.4320983646953611e+00 -3.9320851133909936e-02 0.0000000000000000e+00  1.4360306271945804e+00 -3.0530408720553529e-02 0.0000000000000000e+00  1.4737198898878565e+00 5.2266486039390834e-10 0.0000000000000000e+00  1.2806973291702353e+00 4.0653816339592719e-10 0.0000000000000000e+00  1.4062500002560394e+00 4.4251818804046650e-10 0.0000000000000000e+00  1.4609486760344115e+00 -2.5449892279873633e-09 0.0000000000000000e+00  1.4999715047450251e+00 -4.8406025208705403e-09 0.0000000000000000e+00  1.4051731435115318e+00 -6.6175765360685579e-09 0.0000000000000000e+00  1.3782500699138969e+00 -3.5303482988148332e-09 0.0000000000000000e+00  1.4430694640318862e+00 -1.0256322020009889e-08 0.0000000000000000e+00  1.4160904834800316e+00 -2.1222036513370876e-03 0.0000000000000000e+00  1.4997531143291749e+00 -2.8462775338956715e-03 0.0000000000000000e+00  1.4110204133769979e+00 -1.5899079912994542e-03 0.0000000000000000e+00  1.2401748160079069e+00 -2.4623996602920342e-01 0.0000000000000000e+00  1.2786552611552744e+00 -2.3892064460947041e-01 0.0000000000000000e+00  4.0781906725589462e-01 3.6477803233221856e-01 0.0000000000000000e+00  3.1668097436065906e-01 3.7848455962950939e-01 0.0000000000000000e+00  0.0000000000000000e+00 -3.5099297682983107e-16 0.0000000000000000e+00  1.7804107039616607e-01 2.3171812731837496e-01 0.0000000000000000e+00  1.1262342371503187e-01 9.3799334702308765e-02 0.0000000000000000e+00  0.0000000000000000e+00 0.0000000000000000e+00 0.0000000000000000e+00  9.0801815911403072e-01 -5.6491319939762796e-01 0.0000000000000000e+00  1.4259431865999892e+00 5.8443794922802539e-05 0.0000000000000000e+00  1.4990427724327500e+00 5.2258565070547123e-05 0.0000000000000000e+00  1.4983066453988014e+00 6.9212946818726721e-05 0.0000000000000000e+00  1.3923825408081478e+00 3.3601930789452389e-06 0.0000000000000000e+00  1.4741770113176682e+00 6.3268152926496693e-06 0.0000000000000000e+00  1.4961340492162767e+00 3.5464835960929662e-06 0.0000000000000000e+00  1.1140887966811388e+00 1.1474148113966573e-06 0.0000000000000000e+00  1.3413219215836718e+00 7.8676884932216930e-07 0.0000000000000000e+00  6.1779659805129827e-01 1.5849345021589359e-05 0.0000000000000000e+00  6.1782356104107128e-01 1.2074530228628731e-05 0.0000000000000000e+00  0.0000000000000000e+00 -8.1116057131680079e-16 0.0000000000000000e+00  1.3636139644881882e+00 7.5549586111929001e-05 0.0000000000000000e+00  1.3177737784643060e+00 7.0794758433278366e-05 0.0000000000000000e+00  1.4797173986712784e+00 9.7224417609555907e-05 0.0000000000000000e+00  1.0985750460220298e+00 2.9821190265990488e-05 0.0000000000000000e+00  1.3781289159579853e+00 3.7619455217132876e-05 0.0000000000000000e+00  6.5530379109463344e-01 -4.9979160583802090e-06 0.0000000000000000e+00  5.8199191119088678e-01 -5.0465931682776912e-08 0.0000000000000000e+00  5.8199186980789752e-01 3.8759996051141766e-09 0.0000000000000000e+00  0.0000000000000000e+00 0.0000000000000000e+00 0.0000000000000000e+00  1.3757962763804525e+00 1.5396267270289511e-07 0.0000000000000000e+00  1.4964882573511753e+00 6.8113389321409462e-07 0.0000000000000000e+00  1.0697412087249605e+00 -1.2995556227730639e-07 0.0000000000000000e+00  1.3996017313436260e+00 -2.1874502456329208e-07 0.0000000000000000e+00  6.4888551798334371e-01 -6.7454962462062811e-08 0.0000000000000000e+00  6.5525077547597232e-01 -5.7399234108643547e-05 0.0000000000000000e+00  0.0000000000000000e+00 -1.0220551297741203e-15 0.0000000000000000e+00  1.4054537652160861e+00 -7.4604239974820986e-05 0.0000000000000000e+00  1.4981744070220233e+00 5.2936252692270662e-05 0.0000000000000000e+00  1.1308406031512219e+00 -1.9103532901151049e-04 0.0000000000000000e+00  1.4090183548822033e+00 -3.4574798810148809e-04 0.0000000000000000e+00  6.6585364880117515e-01 -1.5096239953744920e-04 0.0000000000000000e+00  6.4888562580393472e-01 -5.4193038732020107e-08 0.0000000000000000e+00  4.2934773551289535e-16 0.0000000000000000e+00 0.0000000000000000e+00  1.4031644487281802e+00 -2.6984183148799591e-07 0.0000000000000000e+00  1.4999411938657017e+00 -2.6126978199062796e-07 0.0000000000000000e+00  1.1216410523151199e+00 -1.5394982307930411e-07 0.0000000000000000e+00  1.4064125898672797e+00 -2.2829210222547754e-07 0.0000000000000000e+00  6.5856961842184736e-01 -3.9010768022634351e-08 0.0000000000000000e+00  1.3930664991864199e+00 2.8353904760898108e-10 0.0000000000000000e+00  1.4994286257220182e+00 2.8671594834044984e-10 0.0000000000000000e+00  6.8374664677015784e-01 -2.2243889254220409e-09 0.0000000000000000e+00  6.8374664411498431e-01 -8.0530141751648019e-10 0.0000000000000000e+00  0.0000000000000000e+00 0.0000000000000000e+00 0.0000000000000000e+00  1.3878966715576664e+00 -2.0540868045705053e-08 0.0000000000000000e+00  1.4999230804267607e+00 -2.5912779683326728e-08 0.0000000000000000e+00  5.2278400206391484e-01 -5.2907900170909743e-09 0.0000000000000000e+00  5.2278399276697018e-01 -2.6302268670161319e-09 0.0000000000000000e+00  0.0000000000000000e+00 0.0000000000000000e+00 0.0000000000000000e+00  1.0547575567334821e+00 -9.4516051423129029e-09 0.0000000000000000e+00  1.3236896162137815e+00 -3.3940812592203283e-08 0.0000000000000000e+00  6.2110991350142297e-01 -2.2575660097777454e-08 0.0000000000000000e+00  6.2110988001801271e-01 -1.3460479009740882e-08 0.0000000000000000e+00  0.0000000000000000e+00 0.0000000000000000e+00 0.0000000000000000e+00  1.0081938986201651e+00 -2.9460597049747935e-08 0.0000000000000000e+00  1.3639553392591961e+00 -6.2982347059747510e-08 0.0000000000000000e+00  1.3943928710976468e+00 -1.2238779170288613e-07 0.0000000000000000e+00  1.4981010497687695e+00 -9.9071125206235070e-08 0.0000000000000000e+00  6.8551212159480357e-01 -1.1239161861947831e-03 0.0000000000000000e+00  6.8431248048262783e-01 -3.1796296968571869e-04 0.0000000000000000e+00  0.0000000000000000e+00 0.0000000000000000e+00 0.0000000000000000e+00  1.4141428043801951e+00 -5.1930266340952424e-03 0.0000000000000000e+00  1.4206125638345464e+00 -1.8345620249478689e-03 0.0000000000000000e+00  6.5070943756714805e-01 -5.5264655222102307e-08 0.0000000000000000e+00  6.5070935675066888e-01 -3.9293203895356741e-08 0.0000000000000000e+00  0.0000000000000000e+00 0.0000000000000000e+00 0.0000000000000000e+00  1.0976429885736869e+00 -9.4035507968032604e-08 0.0000000000000000e+00  1.4044876346216932e+00 -1.8663232147445690e-07 0.0000000000000000e+00  1.4050131869920579e+00 -2.4845972021924609e-07 0.0000000000000000e+00  1.4999986904236806e+00 -2.4536564352210222e-07 0.0000000000000000e+00  6.6338277235676713e-01 -2.9178823303773288e-05 0.0000000000000000e+00  6.6335313001327167e-01 3.3522087459519460e-05 0.0000000000000000e+00  0.0000000000000000e+00 0.0000000000000000e+00 0.0000000000000000e+00  1.1485908213308402e+00 -5.9596100423253554e-04 0.0000000000000000e+00  1.4137368025547807e+00 -5.7000229484582062e-04 0.0000000000000000e+00  1.4092860281477262e+00 -1.0872019220713129e-04 0.0000000000000000e+00  1.5000803832240517e+00 -4.4076542788573962e-04 0.0000000000000000e+00  6.1566336425938495e-01 -5.5826244692019623e-08 0.0000000000000000e+00  6.1566326244401970e-01 -6.2838802709294188e-08 0.0000000000000000e+00  0.0000000000000000e+00 0.0000000000000000e+00 0.0000000000000000e+00  1.0939550466176746e+00 -1.7445739168226336e-07 0.0000000000000000e+00  1.3930569829472694e+00 -2.62559