<?xml version="1.0"?>
<VTKFile type="UnstructuredGrid"  version="0.1"  >
<UnstructuredGrid>
<Piece  NumberOfPoints="525" NumberOfCells="924">
<Points>
<DataArray  type="Float64"  NumberOfComponents="3"  format="ascii">0 0 0  2.2 0 0  2.2 0.41 0  0 0.41 0  0.15 0.2 0  0.25 0.2 0  0.2 0.15 0  0.2 0.25 0  0.104762 0 0  0.209524 0 0  0.314286 0 0  0.419048 0 0  0.52381 0 0  0.628571 0 0  0.733333 0 0  0.838095 0 0  0.9428569999999999 0 0  1.04762 0 0  1.15238 0 0  1.25714 0 0  1.3619 0 0  1.46667 0 0  1.57143 0 0  1.67619 0 0  1.78095 0 0  1.88571 0 0  1.99048 0 0  2.09524 0 0  2.2 0.1025 0  2.2 0.205 0  2.2 0.3075 0  2.1 0.41 0  2 0.41 0  1.9 0.41 0  1.8 0.41 0  1.7 0.41 0  1.6 0.41 0  1.5 0.41 0  1.4 0.41 0  1.3 0.41 0  1.2 0.41 0  1.1 0.41 0  1 0.41 0  0.9 0.41 0  0.8 0.41 0  0.7 0.41 0  0.6 0.41 0  0.5 0.41 0  0.4 0.41 0  0.3 0.41 0  0.2 0.41 0  0.1 0.41 0  0 0.3075 0  0 0.205 0  0 0.1025 0  0.1566987973585577 0.2250001169958213 0  0.1749998830041787 0.2433012026414423 0  0.2250001169958213 0.2433012026414423 0  0.2433012026414423 0.2250001169958213 0  0.2433012026414423 0.1749998830041787 0  0.2250001169958213 0.1566987973585577 0  0.1749998830041787 0.1566987973585577 0  0.1566987973585577 0.1749998830041787 0  0.352033 0.262216 0  1.04579 0.252253 0  1.24065 0.243419 0  0.985775 0.171509 0  1.30324 0.187395 0  0.890988 0.190768 0  1.39085 0.202767 0  0.801464 0.204685 0  1.49904 0.204666 0  0.704267 0.202289 0  1.60238 0.204951 0  0.487789 0.19191 0  1.72935 0.219637 0  1.83335 0.187427 0  2.03359 0.193642 0  0.314663 0.307348 0  0.249039 0.333583 0  2.12147 0.253405 0  2.06373 0.0836837 0  0.0734726 0.267055 0  0.143989 0.0677174 0  0.0613613 0.33781 0  0.299628 0.236829 0  0.527114 0.295386 0  0.262384 0.26549 0  0.275777 0.18341 0  1.74578 0.330928 0  1.84001 0.302448 0  1.64998 0.313838 0  0.648421 0.302367 0  1.54544 0.308508 0  0.755686 0.306156 0  1.42668 0.314809 0  0.870524 0.298596 0  1.22553 0.112785 0  1.05603 0.147372 0  0.969346 0.329867 0  1.32527 0.276284 0  2.02914 0.29511 0  1.88168 0.119486 0  1.79545 0.104842 0  1.35688 0.0892539 0  1.69041 0.105324 0  0.914199 0.09555660000000001 0  1.58234 0.102923 0  0.61843 0.10815 0  1.47999 0.101161 0  0.725217 0.104273 0  0.821727 0.102306 0  1.96725 0.105778 0  0.418624 0.241547 0  0.135226 0.239087 0  1.14921 0.314841 0  0.404508 0.333259 0  0.590155 0.206269 0  2.12554 0.150731 0  1.93166 0.22436 0  0.104689 0.190046 0  0.267856 0.07447529999999999 0  0.269368 0.221581 0  0.434446 0.114927 0  1.0089 0.07933809999999999 0  0.953023 0.246698 0  1.25853 0.33355 0  1.05268 0.340828 0  2.1369 0.067383 0  0.522398 0.112537 0  1.3421 0.348929 0  0.215186 0.289473 0  0.203197 0.335348 0  1.13984 0.190728 0  1.93813 0.330504 0  1.10505 0.0883705 0  0.341988 0.0824728 0  0.253113 0.138035 0  0.291932 0.131907 0  0.203713 0.102439 0  0.150375 0.134668 0  0.151494 0.309119 0  0.354384 0.17896 0  0.06853670000000001 0.100776 0  0.424128 0.180088 0  0.474925 0.0568661 0  2.10843 0.347669 0  2.160735 0.2804525 0  2.160735 0.2292025 0  2.2 0.25625 0  2.079485 0.04184185 0  2.027105 0.04184185 0  2.04286 0 0  0.1767565 0.0338587 0  0.1243755 0.0338587 0  0.157143 0 0  0.08068065000000001 0.373905 0  0.03068065 0.373905 0  0.05 0.41 0  0.03068065 0.322655 0  0 0.35875 0  0.281851 0.3204655 0  0.2745195 0.3717915 0  0.3073315 0.358674 0  0.06741695 0.3024325 0  0.0367363 0.2872775 0  0.3071455 0.2720885 0  0.3258305 0.2495225 0  0.333348 0.284782 0  0.2557115 0.2995365 0  0.2885235 0.286419 0  2.075305 0.2742575 0  2.031365 0.244376 0  2.07753 0.2235235 0  2.01549 0.09473085000000001 0  1.978865 0.052889 0  2.00042 0.14971 0  2.04866 0.13866285 0  0.472869 0.2684665 0  0.4532065 0.2167285 0  0.5074514999999999 0.243648 0  2.16277 0.1778655 0  2.16277 0.1266155 0  2.2 0.15375 0  1.90667 0.171923 0  1.882505 0.2058935 0  1.857515 0.1534565 0  1.885835 0.263404 0  1.83668 0.2449375 0  0.6042925 0.1572095 0  0.647211 0.204279 0  0.6613485 0.1552195 0  0.3595855 0.3203035 0  0.3782705 0.2977375 0  0.155113 0.241194 0  0.1459625 0.2320435 0  0.1646446609406726 0.2353553390593274 0  0.259539 0.179205 0  0.2628885 0.191705 0  0.2482962819455563 0.1870590127797247 0  0.281006 0.2511595 0  1.0209025 0.1594405 0  1.05091 0.1998125 0  1.0157825 0.211881 0  1.264385 0.15009 0  1.23309 0.178102 0  1.271945 0.215407 0  1.291205 0.10101945 0  1.33006 0.13832445 0  0.928528 0.0477783 0  0.876147 0.0477783 0  0.890476 0 0  0.9025935 0.1431623 0  0.9499869999999999 0.1335328 0  0.9383815 0.1811385 0  0.867963 0.0989313 0  0.8563575 0.146537 0  0.8299110000000001 0.051153 0  1.411775 0.04462695 0  1.35939 0.04462695 0  1.414285 0 0  1.373865 0.14601045 0  1.347045 0.195081 0  1.418435 0.09520745 0  1.43542 0.151964 0  1.47333 0.0505805 0  0.7775300000000001 0.051153 0  0.785714 0 0  0.8115954999999999 0.1534955 0  0.8462259999999999 0.1977265 0  0.7734719999999999 0.1032895 0  0.7633405 0.154479 0  0.729275 0.0521365 0  1.52571 0.0505805 0  1.51905 0 0  1.489515 0.1529135 0  1.444945 0.2037165 0  1.531165 0.102042 0  1.54069 0.1537945 0  1.576885 0.0514615 0  1.9804 0.259735 0  1.982625 0.209001 0  1.820005 0.356224 0  1.870005 0.356224 0  1.85 0.41 0  1.78468 0.2610425 0  1.78135 0.203532 0  1.72289 0.370464 0  1.77289 0.370464 0  1.75 0.41 0  1.792895 0.316688 0  1.737565 0.2752825 0  1.62499 0.361919 0  1.67499 0.361919 0  1.65 0.41 0  1.69788 0.322383 0  1.689665 0.2667375 0  1.62618 0.2593945 0  1.665865 0.212294 0  0.6242105 0.3561835 0  0.6742105 0.3561835 0  0.6499999999999999 0.41 0  0.6192880000000001 0.254318 0  0.6763440000000001 0.252328 0  1.52272 0.359254 0  1.57272 0.359254 0  1.55 0.41 0  1.59771 0.311173 0  1.57391 0.2567295 0  1.52224 0.256587 0  1.55071 0.2048085 0  0.727843 0.358078 0  0.7778430000000001 0.358078 0  0.75 0.41 0  0.7020535 0.3042615 0  0.7299765 0.2542225 0  0.778575 0.2554205 0  0.7528655 0.203487 0  1.41334 0.3624045 0  1.46334 0.3624045 0  1.45 0.41 0  1.48606 0.3116585 0  1.46286 0.2597375 0  1.408765 0.258788 0  0.8352619999999999 0.354298 0  0.885262 0.354298 0  0.8500000000000001 0.41 0  0.813105 0.302376 0  0.8359939999999999 0.2516405 0  0.880756 0.244682 0  0.9346730000000001 0.3699335 0  0.984673 0.3699335 0  0.95 0.41 0  0.9199349999999999 0.3142315 0  0.676894 0.0521365 0  0.680952 0 0  0.714742 0.153281 0  0.6718235 0.1062115 0  0.6235005 0.054075 0  1.629265 0.0514615 0  1.62381 0 0  1.59236 0.153937 0  1.636375 0.1041235 0  1.646395 0.1551375 0  1.6833 0.052662 0  1.73568 0.052662 0  1.72857 0 0  1.70988 0.1624805 0  1.74293 0.105083 0  1.7624 0.1622395 0  1.7882 0.052421 0  1.84058 0.052421 0  1.83333 0 0  1.8144 0.1461345 0  1.838565 0.112164 0  1.883695 0.059743 0  1.124605 0.3624205 0  1.174605 0.3624205 0  1.15 0.41 0  1.314255 0.2318395 0  1.28296 0.2598515 0  1.35806 0.2395255 0  1.375975 0.2955465 0  1.92648 0.052889 0  1.938095 0 0  1.924465 0.112632 0  1.949455 0.165069 0  0.352254 0.3716295 0  0.402254 0.3716295 0  0.35 0.41 0  0.513557 0.352693 0  0.563557 0.352693 0  0.55 0.41 0  0.5877675 0.2988765 0  0.5586344999999999 0.2508275 0  0.538972 0.1990895 0  0.452254 0.3716295 0  0.45 0.41 0  0.465811 0.3143225 0  0.411566 0.287403 0  0.3853285 0.2518815 0  0.1199575 0.2145665 0  0.0890808 0.2285505 0  0.1043493 0.253071 0  0.2245195 0.3717915 0  0.25 0.41 0  0.291071 0.03723765 0  0.23869 0.03723765 0  0.261905 0 0  0.265876 0.2435355 0  0.2563345 0.2232905 0  0.2528425 0.245245 0  0.284498 0.229205 0  1.032465 0.11335505 0  0.9973375 0.12542355 0  0.9615494999999999 0.08744735000000001 0  0.9220055 0.218733 0  0.9693989999999999 0.2091035 0  0.9611845 0.2882825 0  0.9117735 0.272647 0  1.229265 0.371775 0  1.279265 0.371775 0  1.25 0.41 0  1.02634 0.375414 0  1.07634 0.375414 0  1.05 0.41 0  1.011013 0.3353475 0  2.11607 0.0336915 0  2.16845 0.0336915 0  2.14762 0 0  2.16845 0.0849415 0  2.2 0.05125 0  2.100315 0.07553335 0  0.5562765000000001 0.159403 0  0.570414 0.1103435 0  0.5050935 0.1522235 0  1.32105 0.3794645 0  1.37105 0.3794645 0  1.35 0.41 0  1.333685 0.3126065 0  1.38439 0.331869 0  0.9994065 0.2494755 0  1.007568 0.29106 0  1.300315 0.3412395 0  1.2919 0.304917 0  2.13122 0.109057 0  2.094635 0.11720735 0  0.2725725 0.2024955 0  0.259684 0.2107905 0  0.2482962819455563 0.2129409872202754 0  0.2877025 0.2101195 0  2.123505 0.202068 0  2.079565 0.1721865 0  1.02826 0.03966905 0  0.9758784999999999 0.03966905 0  0.9952384999999999 0 0  1.049235 0.2965405 0  1.100945 0.3278345 0  1.0975 0.283547 0  0.5711200000000001 0.054075 0  0.5761905 0 0  0.523104 0.0562685 0  1.24959 0.2884845 0  1.20387 0.3241955 0  1.19493 0.27913 0  0.238785 0.2774815 0  0.2321125 0.311528 0  0.226118 0.3344655 0  0.2015985 0.3726739999999999 0  1.144525 0.2527845 0  1.190245 0.2170735 0  1.092815 0.2214905 0  0.2091915 0.3124105 0  0.220093 0.266387 0  0.243692 0.2543955 0  0.2353553390593274 0.2353553390593274 0  0.478422 0.113732 0  0.4611175 0.1534185 0  1.919065 0.370252 0  1.969065 0.370252 0  1.95 0.41 0  1.983635 0.312807 0  2.01457 0.352555 0  1.88907 0.316476 0  1.934895 0.277432 0  1.182685 0.1517565 0  1.097935 0.16905 0  1.128715 0.04418525 0  1.076335 0.04418525 0  1.1 0 0  1.056975 0.08385429999999999 0  1.08054 0.11787125 0  1.122445 0.13954925 0  1.16529 0.10057775 0  0.304922 0.07847404999999999 0  0.328137 0.0412364 0  0.380518 0.0412364 0  0.366667 0 0  0.388217 0.09869990000000001 0  0.426747 0.0574635 0  0.31696 0.1071899 0  0.279894 0.10319115 0  0.2725225 0.134971 0  0.2604845 0.10625515 0  0.228413 0.120237 0  0.2143565 0.129569 0  0.2390565 0.147367 0  1.30701 0.04462695 0  1.30952 0 0  1.241335 0.0563925 0  0.2357845 0.08845715 0  1.188955 0.0563925 0  1.20476 0 0  0.2066185 0.0512195 0  0.173851 0.08507819999999999 0  0.0367363 0.2360275 0  0 0.25625 0  0.264445 0.1607225 0  0.248207 0.1565175 0  0.2353553390593274 0.1646446609406726 0  0.2838545 0.1576585 0  0.130694 0.182523 0  0.1273445 0.195023 0  0.1517037180544437 0.1870590127797247 0  0.127532 0.162357 0  0.153537 0.154834 0  0.0523445 0.197523 0  0
[...]
<PointData  Vectors="u"> 
<DataArray  type="Float64"  Name="u"  NumberOfComponents="3" format="ascii">2.6646822997409761e-15 -2.2971107150777559e-15 0.0000000000000000e+00  0.0000000000000000e+00 0.0000000000000000e+00 0.0000000000000000e+00  0.0000000000000000e+00 0.0000000000000000e+00 0.0000000000000000e+00  -7.9301259454789816e-16 -1.3409855138175529e-15 0.0000000000000000e+00  0.0000000000000000e+00 0.0000000000000000e+00 0.0000000000000000e+00  0.0000000000000000e+00 0.0000000000000000e+00 0.0000000000000000e+00  0.0000000000000000e+00 6.9228207680799800e-16 0.0000000000000000e+00  0.0000000000000000e+00 0.0000000000000000e+00 0.0000000000000000e+00  0.0000000000000000e+00 0.0000000000000000e+00 0.0000000000000000e+00  0.0000000000000000e+00 2.6399853483120362e-15 0.0000000000000000e+00  0.0000000000000000e+00 0.0000000000000000e+00 0.0000000000000000e+00  0.0000000000000000e+00 0.0000000000000000e+00 0.0000000000000000e+00  0.0000000000000000e+00 -6.5252381743150292e-16 0.0000000000000000e+00  0.0000000000000000e+00 8.8842322406034553e-16 0.0000000000000000e+00  0.0000000000000000e+00 0.0000000000000000e+00 0.0000000000000000e+00  0.0000000000000000e+00 7.4150262683172027e-16 0.0000000000000000e+00  0.0000000000000000e+00 -4.4010314489460810e-16 0.0000000000000000e+00  0.0000000000000000e+00 0.0000000000000000e+00 0.0000000000000000e+00  0.0000000000000000e+00 0.0000000000000000e+00 0.0000000000000000e+00  0.0000000000000000e+00 0.0000000000000000e+00 0.0000000000000000e+00  -3.1360186122938580e-16 0.0000000000000000e+00 0.0000000000000000e+00  0.0000000000000000e+00 -3.0922420941549825e-16 0.0000000000000000e+00  0.0000000000000000e+00 0.0000000000000000e+00 0.0000000000000000e+00  4.9860280190965904e-16 0.0000000000000000e+00 0.0000000000000000e+00  -3.5465943795444150e-16 0.0000000000000000e+00 0.0000000000000000e+00  0.0000000000000000e+00 1.5083802688218520e-15 0.0000000000000000e+00  0.0000000000000000e+00 -4.9112964535660952e-16 0.0000000000000000e+00  0.0000000000000000e+00 0.0000000000000000e+00 0.0000000000000000e+00  1.1250000003577432e+00 3.0492122301214565e-10 0.0000000000000000e+00  1.5000000000001312e+00 4.9507254073329486e-10 0.0000000000000000e+00  1.1249999996424758e+00 3.0448650335075741e-10 0.0000000000000000e+00  0.0000000000000000e+00 0.0000000000000000e+00 0.0000000000000000e+00  0.0000000000000000e+00 8.5300194595606846e-16 0.0000000000000000e+00  0.0000000000000000e+00 4.5864254987266171e-16 0.0000000000000000e+00  0.0000000000000000e+00 0.0000000000000000e+00 0.0000000000000000e+00  0.0000000000000000e+00 0.0000000000000000e+00 0.0000000000000000e+00  0.0000000000000000e+00 0.0000000000000000e+00 0.0000000000000000e+00  0.0000000000000000e+00 0.0000000000000000e+00 0.0000000000000000e+00  0.0000000000000000e+00 0.0000000000000000e+00 0.0000000000000000e+00  0.0000000000000000e+00 7.2250473977358769e-16 0.0000000000000000e+00  0.0000000000000000e+00 5.4987470207691767e-16 0.0000000000000000e+00  0.0000000000000000e+00 0.0000000000000000e+00 0.0000000000000000e+00  0.0000000000000000e+00 0.0000000000000000e+00 0.0000000000000000e+00  0.0000000000000000e+00 0.0000000000000000e+00 0.0000000000000000e+00  0.0000000000000000e+00 5.0251780029710230e-16 0.0000000000000000e+00  0.0000000000000000e+00 0.0000000000000000e+00 0.0000000000000000e+00  0.0000000000000000e+00 0.0000000000000000e+00 0.0000000000000000e+00  0.0000000000000000e+00 0.0000000000000000e+00 0.0000000000000000e+00  5.8131513653451554e-16 0.0000000000000000e+00 0.0000000000000000e+00  0.0000000000000000e+00 2.3622772191872787e-15 0.0000000000000000e+00  0.0000000000000000e+00 0.0000000000000000e+00 0.0000000000000000e+00  0.0000000000000000e+00 0.0000000000000000e+00 0.0000000000000000e+00  1.1250000000000002e+00 0.0000000000000000e+00 0.0000000000000000e+00  1.5000000000000018e+00 0.0000000000000000e+00 0.0000000000000000e+00  1.1250000000000027e+00 0.0000000000000000e+00 0.0000000000000000e+00  0.0000000000000000e+00 0.0000000000000000e+00 0.0000000000000000e+00  -2.2526898480123225e-15 -9.3862046077469077e-16 0.0000000000000000e+00  0.0000000000000000e+00 0.0000000000000000e+00 0.0000000000000000e+00  0.0000000000000000e+00 0.0000000000000000e+00 0.0000000000000000e+00  0.0000000000000000e+00 0.0000000000000000e+00 0.0000000000000000e+00  -9.4660263240585158e-16 -3.3564321564519137e-16 0.0000000000000000e+00  0.0000000000000000e+00 -4.3845085930194546e-16 0.0000000000000000e+00  3.0910076727469550e-16 0.0000000000000000e+00 0.0000000000000000e+00  1.2548586661655321e+00 -3.2703495210792394e-01 0.0000000000000000e+00  1.4202797793519011e+00 4.9579269008339253e-05 0.0000000000000000e+00  1.4473151292875002e+00 5.3671534742109540e-06 0.0000000000000000e+00  1.4599981086860068e+00 7.7445448135563842e-05 0.0000000000000000e+00  1.4889375259399398e+00 1.9555432413316225e-06 0.0000000000000000e+00  1.4928172488570679e+00 9.8683943304660488e-05 0.0000000000000000e+00  1.4998220106737969e+00 3.6280693539943148e-08 0.0000000000000000e+00  1.5000918984019562e+00 -8.1027911369962579e-05 0.0000000000000000e+00  1.4999960166071187e+00 -2.9993517968909990e-07 0.0000000000000000e+00  1.4999141166446626e+00 -1.1642757702423170e-03 0.0000000000000000e+00  1.4999999142681624e+00 -1.7368659059910019e-07 0.0000000000000000e+00  1.4591160574756799e+00 -8.1661213623734265e-03 0.0000000000000000e+00  1.4923530657066886e+00 -4.9418051529869222e-08 0.0000000000000000e+00  1.4889776195671256e+00 -1.1682380751990483e-08 0.0000000000000000e+00  1.4953954493975290e+00 7.6427449654387125e-10 0.0000000000000000e+00  1.4285911361671713e+00 -4.2936124494565880e-01 0.0000000000000000e+00  1.7555461636561609e+00 -2.7562841563296880e-01 0.0000000000000000e+00  1.4163696358126854e+00 5.9125600194731680e-10 0.0000000000000000e+00  9.7468252404272770e-01 3.7142087845963345e-10 0.0000000000000000e+00  1.2752874820286353e+00 5.6416636795342734e-01 0.0000000000000000e+00  1.5556912018861826e+00 -2.9603672444424628e-01 0.0000000000000000e+00  1.0826423450929594e+00 2.9463347188491112e-01 0.0000000000000000e+00  8.2733283318863482e-01 -4.1561091509268522e-01 0.0000000000000000e+00  1.2183834194020584e+00 -2.3620250375201230e-02 0.0000000000000000e+00  1.1315838646480172e+00 -6.1015551051757555e-01 0.0000000000000000e+00  3.4033186363987644e-01 2.2121284705217950e-01 0.0000000000000000e+00  9.3398474644693441e-01 -1.3815386401440063e-08 0.0000000000000000e+00  1.1610548733602839e+00 -5.5351393043435413e-09 0.0000000000000000e+00  1.0771906649921315e+00 -5.6429710614492297e-08 0.0000000000000000e+00  1.1629090898166463e+00 -2.1410549151910214e-03 0.0000000000000000e+00  1.1175883381041105e+00 -1.4151213375243878e-07 0.0000000000000000e+00  1.1346702395826720e+00 -7.7253951068993892e-05 0.0000000000000000e+00  1.0696131972982692e+00 -1.4647516812585167e-07 0.0000000000000000e+00  1.1871705759214948e+00 9.8323959655087113e-05 0.0000000000000000e+00  1.1964831614888776e+00 4.2505312239145403e-06 0.0000000000000000e+00  1.3814888312490408e+00 4.1358321995573603e-05 0.0000000000000000e+00  9.4340110180366898e-01 4.0771901819953342e-05 0.0000000000000000e+00  1.3186291176616143e+00 8.2448447443600842e-07 0.0000000000000000e+00  1.2101792219863394e+00 5.5211137363385321e-10 0.0000000000000000e+00  1.2389894990089387e+00 -2.8679477911610291e-09 0.0000000000000000e+00  1.1419408024332953e+00 -1.0995678269886786e-08 0.0000000000000000e+00  1.0218142142075557e+00 1.0993933669497566e-07 0.0000000000000000e+00  1.1453787199073890e+00 -4.2364109002913925e-08 0.0000000000000000e+00  1.0725890528375401e+00 4.6777287845289612e-05 0.0000000000000000e+00  1.1280885838453476e+00 -1.1211666261663725e-07 0.0000000000000000e+00  1.1638695944024660e+00 -6.4673881844659197e-04 0.0000000000000000e+00  1.1151380933434556e+00 -1.8221589594703377e-07 0.0000000000000000e+00  1.1377644433893397e+00 -4.6305615266714243e-04 0.0000000000000000e+00  1.1237253972064081e+00 -3.4426573935435119e-05 0.0000000000000000e+00  1.1486018353115004e+00 1.7123785881124737e-10 0.0000000000000000e+00  1.3678517803551842e+00 -1.0943645208430415e-01 0.0000000000000000e+00  6.0231322954972732e-01 5.4933691853663058e-01 0.0000000000000000e+00  1.0693518419914507e+00 9.0972998722065453e-06 0.0000000000000000e+00  1.0377577042418951e+00 -1.1488694278400460e-01 0.0000000000000000e+00  1.4973408637548271e+00 -6.0998657177734833e-03 0.0000000000000000e+00  1.3948795592435619e+00 5.6378001592346294e-10 0.0000000000000000e+00  1.4866219058187227e+00 -1.2301207374406563e-09 0.0000000000000000e+00  6.3104694965805008e-01 -1.0411333752109461e-01 0.0000000000000000e+00  1.5427170450605552e+00 3.3007053595343411e-01 0.0000000000000000e+00  3.1529641667923652e-01 -2.9271675441368883e-01 0.0000000000000000e+00  1.2047793986325801e+00 7.8265841357095300e-02 0.0000000000000000e+00  9.3642685922333069e-01 2.5986494123764801e-05 0.0000000000000000e+00  1.4378957711123632e+00 9.6916861078077973e-05 0.0000000000000000e+00  9.1016796815632994e-01 1.2649659216220719e-06 0.0000000000000000e+00  8.4145837372647947e-01 1.5621056942834323e-05 0.0000000000000000e+00  8.2402955358069685e-01 1.9830223073631062e-10 0.0000000000000000e+00  1.1912613506910679e+00 1.0492160669158392e-02 0.0000000000000000e+00  7.6059923566813914e-01 7.9312913334521586e-08 0.0000000000000000e+00  1.7048168439737688e+00 -1.9349126989278886e-01 0.0000000000000000e+00  1.8948398466009004e+00 -1.1263197884945826e-02 0.0000000000000000e+00  1.4927321698927405e+00 2.1547655301783413e-05 0.0000000000000000e+00  9.3778986123026276e-01 -9.2709770699598981e-11 0.0000000000000000e+00  1.0145057239848740e+00 1.3237699110522568e-05 0.0000000000000000e+00  1.1809956831117574e+00 2.5564579774825974e-01 0.0000000000000000e+00  1.0041701881560536e+00 5.5239037487415354e-01 0.0000000000000000e+00  1.1461371038553358e+00 5.4719716739586066e-01 0.0000000000000000e+00  1.7652731733692077e+00 3.6575290305975963e-02 0.0000000000000000e+00  1.0984486494275432e+00 -5.7240750321119083e-01 0.0000000000000000e+00  1.7767749236286909e+00 4.6637394228236623e-01 0.0000000000000000e+00  1.1099811801869321e+00 1.0996839413144759e-01 0.0000000000000000e+00  1.2391251486574020e+00 -4.2142118282294461e-01 0.0000000000000000e+00  1.3645850819351921e+00 2.3089013367831143e-02 0.0000000000000000e+00  7.3385160638648472e-01 1.6880251660143956e-02 0.0000000000000000e+00  7.7348803404988276e-01 1.9748317432375930e-10 0.0000000000000000e+00  1.2967966769066326e+00 4.1931948423135124e-10 0.0000000000000000e+00  1.4790924088862876e+00 5.3088892094468540e-10 0.0000000000000000e+00  1.4062499997447655e+00 4.4297121808461043e-10 0.0000000000000000e+00  5.4983050945769585e-01 1.1483758482286674e-10 0.0000000000000000e+00  5.4983050972973013e-01 1.3587271109558851e-10 0.0000000000000000e+00  0.0000000000000000e+00 1.6508396857081684e-15 0.0000000000000000e+00  1.1564069978431444e+00 -4.9542305850823976e-02 0.0000000000000000e+00  9.3250429923990952e-01 -1.0773986273825836e-01 0.0000000000000000e+00  0.0000000000000000e+00 0.0000000000000000e+00 0.0000000000000000e+00  7.4037550493472493e-01 1.1424568605758448e-01 0.0000000000000000e+00  5.2792784604994925e-01 5.4626619523718507e-02 0.0000000000000000e+00  0.0000000000000000e+00 -5.4689695647515582e-16 0.0000000000000000e+00  1.0639863583015978e+00 2.3037602723660636e-01 0.0000000000000000e+00  6.5624999999999878e-01 0.0000000000000000e+00 0.0000000000000000e+00  1.6007416828012107e+00 -4.1481816644835190e-01 0.0000000000000000e+00  1.0905752168672262e+00 -1.0841891402025730e-01 0.0000000000000000e+00  1.1408878797577140e+00 -1.7078401552980915e-01 0.0000000000000000e+00  1.3080183165543566e+00 4.9474776144684912e-01 0.0000000000000000e+00  1.2801177644104595e+00 3.5770631093557637e-01 0.0000000000000000e+00  1.2508312414165714e+00 -5.3244732610679268e-01 0.0000000000000000e+00  1.1057087420665277e+00 -3.9295547400433301e-01 0.0000000000000000e+00  1.3245158227728526e+00 -4.1816618912855380e-01 0.0000000000000000e+00  1.6772549323576804e+00 -4.9625268144546619e-01 0.0000000000000000e+00  1.4145237526251313e+00 -5.7585218316156850e-01 0.0000000000000000e+00  1.3287947176635242e+00 6.3170369304676738e-10 0.0000000000000000e+00  1.4446590342061991e+00 7.2284281785066197e-10 0.0000000000000000e+00  1.4877530020798098e+00 7.6663296973560874e-10 0.0000000000000000e+00  1.0659981413508297e+00 4.3181998049712901e-10 0.0000000000000000e+00  6.7414314272881892e-01 1.5430605692054948e-10 0.0000000000000000e+00  1.3908869454977015e+00 5.2089696244367044e-10 0.0000000000000000e+00  1.3429285860601581e+00 6.6845326320434275e-10 0.0000000000000000e+00  1.3536442230501602e+00 -6.1430081247079327e-02 0.0000000000000000e+00  1.4320740362154427e+00 -3.9334188180121250e-02 0.0000000000000000e+00  1.4360185123874631e+00 -3.0532298175216199e-02 0.0000000000000000e+00  1.4737198898876847e+00 5.2339707835401955e-10 0.0000000000000000e+00  1.2806973291697850e+00 4.0707086007939024e-10 0.0000000000000000e+00  1.4062500002556089e+00 4.4309557422116312e-10 0.0000000000000000e+00  1.4609486760393688e+00 -2.5282107386687995e-09 0.0000000000000000e+00  1.4999715047448161e+00 -4.8181048657028899e-09 0.0000000000000000e+00  1.4051731435243373e+00 -6.5931662313443896e-09 0.0000000000000000e+00  1.3782500699035583e+00 -3.5122339950063164e-09 0.0000000000000000e+00  1.4430694640191737e+00 -1.0225611971895019e-08 0.0000000000000000e+00  1.4160937576228030e+00 -2.1145586493072055e-03 0.0000000000000000e+00  1.4997526632308833e+00 -2.8404698587847286e-03 0.0000000000000000e+00  1.4110228980111512e+00 -1.5848332933163410e-03 0.0000000000000000e+00  1.2402291067749016e+00 -2.4629341908140195e-01 0.0000000000000000e+00  1.2786793224021915e+00 -2.3898656894498752e-01 0.0000000000000000e+00  4.0803504913461353e-01 3.6498963686812802e-01 0.0000000000000000e+00  3.1685699045690857e-01 3.7872245584243869e-01 0.0000000000000000e+00  0.0000000000000000e+00 0.0000000000000000e+00 0.0000000000000000e+00  1.7795483961381647e-01 2.3155011650858970e-01 0.0000000000000000e+00  1.1257485890587302e-01 9.3660438207213204e-02 0.0000000000000000e+00  0.0000000000000000e+00 0.0000000000000000e+00 0.0000000000000000e+00  9.0807111766894366e-01 -5.6502439900819867e-01 0.0000000000000000e+00  1.4259431759028600e+00 5.8468211103394575e-05 0.0000000000000000e+00  1.4990427710537215e+00 5.2261751852676397e-05 0.0000000000000000e+00  1.4983066476371694e+00 6.9249666933926055e-05 0.0000000000000000e+00  1.3923825348322643e+00 3.3500189688682663e-06 0.0000000000000000e+00  1.4741770070788343e+00 6.3124369907490580e-06 0.0000000000000000e+00  1.4961340503641336e+00 3.5353330559590073e-06 0.0000000000000000e+00  1.1140887903373560e+00 1.1423687662789941e-06 0.0000000000000000e+00  1.3413219182495917e+00 7.8157967682350325e-07 0.0000000000000000e+00  6.1779661206466507e-01 1.5878109295097193e-05 0.0000000000000000e+00  6.1782367900858981e-01 1.2147264181429029e-05 0.0000000000000000e+00  0.0000000000000000e+00 3.9463043613611150e-16 0.0000000000000000e+00  1.3636140841613271e+00 7.5861106953341688e-05 0.0000000000000000e+00  1.3177738114142197e+00 7.0920290565142455e-05 0.0000000000000000e+00  1.4797174245106108e+00 9.7438903791809511e-05 0.0000000000000000e+00  1.0985753099509381e+00 3.0127996964520902e-05 0.0000000000000000e+00  1.3781291915896543e+00 3.8241566354240553e-05 0.0000000000000000e+00  6.5530412240438529e-01 -4.8361017640151435e-06 0.0000000000000000e+00  5.8199191048475230e-01 -5.0780605905807597e-08 0.0000000000000000e+00  5.8199186811936776e-01 3.2663268000391824e-09 0.0000000000000000e+00  -3.5303699400174436e-16 0.0000000000000000e+00 0.0000000000000000e+00  1.3757962746442292e+00 1.5053604586412191e-07 0.0000000000000000e+00  1.4964882568773619e+00 6.7557981997929354e-07 0.0000000000000000e+00  1.0697412076309012e+00 -1.3106807556152943e-07 0.0000000000000000e+00  1.3996017307130968e+00 -2.2040641341374771e-07 0.0000000000000000e+00  6.4888551779790982e-01 -6.7611074283386916e-08 0.0000000000000000e+00  6.5525154659600127e-01 -5.7083982113792570e-05 0.0000000000000000e+00  0.0000000000000000e+00 -9.3076106922539693e-16 0.0000000000000000e+00  1.4054542623180382e+00 -7.3459721462649106e-05 0.0000000000000000e+00  1.4981744634296814e+00 5.3807833774722877e-05 0.0000000000000000e+00  1.1308417690260530e+00 -1.8994847193057573e-04 0.0000000000000000e+00  1.4090192678224200e+00 -3.4377586484471293e-04 0.0000000000000000e+00  6.6585516913536380e-01 -1.5039628408565467e-04 0.0000000000000000e+00  6.4888562582256937e-01 -5.4249156594513276e-08 0.0000000000000000e+00  -6.4749034174928065e-16 -3.6922523439534256e-16 0.0000000000000000e+00  1.4031644485175991e+00 -2.7059296876911911e-07 0.0000000000000000e+00  1.4999411938492042e+00 -2.6299434183250038e-07 0.0000000000000000e+00  1.1216410522767326e+00 -1.5414499320403725e-07 0.0000000000000000e+00  1.4064125898344511e+00 -2.2858638877783383e-07 0.0000000000000000e+00  6.5856961850597662e-01 -3.9020970061554029e-08 0.0000000000000000e+00  1.3930664991836281e+00 2.9016293739713587e-10 0.0000000000000000e+00  1.4994286257217784e+00 2.9437518810222103e-10 0.0000000000000000e+00  6.8374664674753094e-01 -2.2169549985060765e-09 0.0000000000000000e+00  6.8374664410224284e-01 -8.0054893519214827e-10 0.0000000000000000e+00  0.0000000000000000e+00 0.0000000000000000e+00 0.0000000000000000e+00  1.3878966715302739e+00 -2.0500338019379115e-08 0.0000000000000000e+00  1.4999230804275063e+00 -2.5864837519138352e-08 0.0000000000000000e+00  5.2278400201841191e-01 -5.2826334189115340e-09 0.0000000000000000e+00  5.2278399273753284e-01 -2.6240487437643476e-09 0.0000000000000000e+00  0.0000000000000000e+00 0.0000000000000000e+00 0.0000000000000000e+00  1.0547575566968495e+00 -9.4294017035504662e-09 0.0000000000000000e+00  1.3236896161669311e+00 -3.3895216854019450e-08 0.0000000000000000e+00  6.2110991341374111e-01 -2.2567898410036624e-08 0.0000000000000000e+00  6.2110987994650935e-01 -1.3448306961417682e-08 0.0000000000000000e+00  0.0000000000000000e+00 0.0000000000000000e+00 0.0000000000000000e+00  1.0081938985445509e+00 -2.9430990646654387e-08 0.0000000000000000e+00  1.3639553392039467e+00 -6.2934330107837146e-08 0.0000000000000000e+00  1.3943928710452898e+00 -1.2238470816966440e-07 0.0000000000000000e+00  1.4981010497613145e+00 -9.9027753930232582e-08 0.0000000000000000e+00  6.8550781863842536e-01 -1.1229399581092637e-03 0.0000000000000000e+00  6.8430967415745103e-01 -3.1711965584370626e-04 0.0000000000000000e+00  0.0000000000000000e+00 0.0000000000000000e+00 0.0000000000000000e+00  1.4141385421301373e+00 -5.1880192567459226e-03 0.0000000000000000e+00  1.4206102404369918e+00 -1.8305570820395594e-03 0.0000000000000000e+00  6.5070943755527855e-01 -5.5324279823221375e-08 0.0000000000000000e+00  6.5070935666901808e-01 -3.9305395772671346e-08 0.0000000000000000e+00  0.0000000000000000e+00 0.0000000000000000e+00 0.0000000000000000e+00  1.0976429884914638e+00 -9.4053411865142310e-08 0.0000000000000000e+00  1.4044876346021906e+00 -1.8676068399400815e-07 0.0000000000000000e+00  1.4050131870724054e+00 -2.4888417093892080e-07 0.0000000000000000e+00  1.4999986904238860e+00 -2.4564976035349857e-07 0.0000000000000000e+00  6.6338123375712410e-01 -2.8642814812335253e-05 0.0000000000000000e+00  6.6335232670457145e-01 3.3849220998464606e-05 0.0000000000000000e+00  0.0000000000000000e+00 0.0000000000000000e+00 0.0000000000000000e+00  1.1485881640258029e+00 -5.9388003164201428e-04 0.0000000000000000e+00  1.4137354854567656e+00 -5.6735290163871369e-04 0.0000000000000000e+00  1.4092852909513169e+00 -1.0706428038905364e-04 0.0000000000000000e+00  1.5000804133789905e+00 -4.3827472758637982e-04 0.0000000000000000e+00  6.1566336498789942e-01 -5.6172896801213550e-08 0.0000000000000000e+00  6.1566326267759286e-01 -6.3003262166877583e-08 0.0000000000000000e+00  0.0000000000000000e+00 0.0000000000000000e+00 0.0000000000000000e+00  1.0939550468848882e+00 -1.7488638539990142e-07 0.0000000000000000e+00  1.3930569833358126e+00 -2.6