<?xml version="1.0"?>
<VTKFile type="UnstructuredGrid"  version="0.1"  >
<UnstructuredGrid>
<Piece  NumberOfPoints="525" NumberOfCells="924">
<Points>
<DataArray  type="Float64"  NumberOfComponents="3"  format="ascii">0 0 0  2.2 0 0  2.2 0.41 0  0 0.41 0  0.15 0.2 0  0.25 0.2 0  0.2 0.15 0  0.2 0.25 0  0.104762 0 0  0.209524 0 0  0.314286 0 0  0.419048 0 0  0.52381 0 0  0.628571 0 0  0.733333 0 0  0.838095 0 0  0.9428569999999999 0 0  1.04762 0 0  1.15238 0 0  1.25714 0 0  1.3619 0 0  1.46667 0 0  1.57143 0 0  1.67619 0 0  1.78095 0 0  1.88571 0 0  1.99048 0 0  2.09524 0 0  2.2 0.1025 0  2.2 0.205 0  2.2 0.3075 0  2.1 0.41 0  2 0.41 0  1.9 0.41 0  1.8 0.41 0  1.7 0.41 0  1.6 0.41 0  1.5 0.41 0  1.4 0.41 0  1.3 0.41 0  1.2 0.41 0  1.1 0.41 0  1 0.41 0  0.9 0.41 0  0.8 0.41 0  0.7 0.41 0  0.6 0.41 0  0.5 0.41 0  0.4 0.41 0  0.3 0.41 0  0.2 0.41 0  0.1 0.41 0  0 0.3075 0  0 0.205 0  0 0.1025 0  0.1566987973585577 0.2250001169958213 0  0.1749998830041787 0.2433012026414423 0  0.2250001169958213 0.2433012026414423 0  0.2433012026414423 0.2250001169958213 0  0.2433012026414423 0.1749998830041787 0  0.2250001169958213 0.1566987973585577 0  0.1749998830041787 0.1566987973585577 0  0.1566987973585577 0.1749998830041787 0  0.352033 0.262216 0  1.04579 0.252253 0  1.24065 0.243419 0  0.985775 0.171509 0  1.30324 0.187395 0  0.890988 0.190768 0  1.39085 0.202767 0  0.801464 0.204685 0  1.49904 0.204666 0  0.704267 0.202289 0  1.60238 0.204951 0  0.487789 0.19191 0  1.72935 0.219637 0  1.83335 0.187427 0  2.03359 0.193642 0  0.314663 0.307348 0  0.249039 0.333583 0  2.12147 0.253405 0  2.06373 0.0836837 0  0.0734726 0.267055 0  0.143989 0.0677174 0  0.0613613 0.33781 0  0.299628 0.236829 0  0.527114 0.295386 0  0.262384 0.26549 0  0.275777 0.18341 0  1.74578 0.330928 0  1.84001 0.302448 0  1.64998 0.313838 0  0.648421 0.302367 0  1.54544 0.308508 0  0.755686 0.306156 0  1.42668 0.314809 0  0.870524 0.298596 0  1.22553 0.112785 0  1.05603 0.147372 0  0.969346 0.329867 0  1.32527 0.276284 0  2.02914 0.29511 0  1.88168 0.119486 0  1.79545 0.104842 0  1.35688 0.0892539 0  1.69041 0.105324 0  0.914199 0.09555660000000001 0  1.58234 0.102923 0  0.61843 0.10815 0  1.47999 0.101161 0  0.725217 0.104273 0  0.821727 0.102306 0  1.96725 0.105778 0  0.418624 0.241547 0  0.135226 0.239087 0  1.14921 0.314841 0  0.404508 0.333259 0  0.590155 0.206269 0  2.12554 0.150731 0  1.93166 0.22436 0  0.104689 0.190046 0  0.267856 0.07447529999999999 0  0.269368 0.221581 0  0.434446 0.114927 0  1.0089 0.07933809999999999 0  0.953023 0.246698 0  1.25853 0.33355 0  1.05268 0.340828 0  2.1369 0.067383 0  0.522398 0.112537 0  1.3421 0.348929 0  0.215186 0.289473 0  0.203197 0.335348 0  1.13984 0.190728 0  1.93813 0.330504 0  1.10505 0.0883705 0  0.341988 0.0824728 0  0.253113 0.138035 0  0.291932 0.131907 0  0.203713 0.102439 0  0.150375 0.134668 0  0.151494 0.309119 0  0.354384 0.17896 0  0.06853670000000001 0.100776 0  0.424128 0.180088 0  0.474925 0.0568661 0  2.10843 0.347669 0  2.160735 0.2804525 0  2.160735 0.2292025 0  2.2 0.25625 0  2.079485 0.04184185 0  2.027105 0.04184185 0  2.04286 0 0  0.1767565 0.0338587 0  0.1243755 0.0338587 0  0.157143 0 0  0.08068065000000001 0.373905 0  0.03068065 0.373905 0  0.05 0.41 0  0.03068065 0.322655 0  0 0.35875 0  0.281851 0.3204655 0  0.2745195 0.3717915 0  0.3073315 0.358674 0  0.06741695 0.3024325 0  0.0367363 0.2872775 0  0.3071455 0.2720885 0  0.3258305 0.2495225 0  0.333348 0.284782 0  0.2557115 0.2995365 0  0.2885235 0.286419 0  2.075305 0.2742575 0  2.031365 0.244376 0  2.07753 0.2235235 0  2.01549 0.09473085000000001 0  1.978865 0.052889 0  2.00042 0.14971 0  2.04866 0.13866285 0  0.472869 0.2684665 0  0.4532065 0.2167285 0  0.5074514999999999 0.243648 0  2.16277 0.1778655 0  2.16277 0.1266155 0  2.2 0.15375 0  1.90667 0.171923 0  1.882505 0.2058935 0  1.857515 0.1534565 0  1.885835 0.263404 0  1.83668 0.2449375 0  0.6042925 0.1572095 0  0.647211 0.204279 0  0.6613485 0.1552195 0  0.3595855 0.3203035 0  0.3782705 0.2977375 0  0.155113 0.241194 0  0.1459625 0.2320435 0  0.1646446609406726 0.2353553390593274 0  0.259539 0.179205 0  0.2628885 0.191705 0  0.2482962819455563 0.1870590127797247 0  0.281006 0.2511595 0  1.0209025 0.1594405 0  1.05091 0.1998125 0  1.0157825 0.211881 0  1.264385 0.15009 0  1.23309 0.178102 0  1.271945 0.215407 0  1.291205 0.10101945 0  1.33006 0.13832445 0  0.928528 0.0477783 0  0.876147 0.0477783 0  0.890476 0 0  0.9025935 0.1431623 0  0.9499869999999999 0.1335328 0  0.9383815 0.1811385 0  0.867963 0.0989313 0  0.8563575 0.146537 0  0.8299110000000001 0.051153 0  1.411775 0.04462695 0  1.35939 0.04462695 0  1.414285 0 0  1.373865 0.14601045 0  1.347045 0.195081 0  1.418435 0.09520745 0  1.43542 0.151964 0  1.47333 0.0505805 0  0.7775300000000001 0.051153 0  0.785714 0 0  0.8115954999999999 0.1534955 0  0.8462259999999999 0.1977265 0  0.7734719999999999 0.1032895 0  0.7633405 0.154479 0  0.729275 0.0521365 0  1.52571 0.0505805 0  1.51905 0 0  1.489515 0.1529135 0  1.444945 0.2037165 0  1.531165 0.102042 0  1.54069 0.1537945 0  1.576885 0.0514615 0  1.9804 0.259735 0  1.982625 0.209001 0  1.820005 0.356224 0  1.870005 0.356224 0  1.85 0.41 0  1.78468 0.2610425 0  1.78135 0.203532 0  1.72289 0.370464 0  1.77289 0.370464 0  1.75 0.41 0  1.792895 0.316688 0  1.737565 0.2752825 0  1.62499 0.361919 0  1.67499 0.361919 0  1.65 0.41 0  1.69788 0.322383 0  1.689665 0.2667375 0  1.62618 0.2593945 0  1.665865 0.212294 0  0.6242105 0.3561835 0  0.6742105 0.3561835 0  0.6499999999999999 0.41 0  0.6192880000000001 0.254318 0  0.6763440000000001 0.252328 0  1.52272 0.359254 0  1.57272 0.359254 0  1.55 0.41 0  1.59771 0.311173 0  1.57391 0.2567295 0  1.52224 0.256587 0  1.55071 0.2048085 0  0.727843 0.358078 0  0.7778430000000001 0.358078 0  0.75 0.41 0  0.7020535 0.3042615 0  0.7299765 0.2542225 0  0.778575 0.2554205 0  0.7528655 0.203487 0  1.41334 0.3624045 0  1.46334 0.3624045 0  1.45 0.41 0  1.48606 0.3116585 0  1.46286 0.2597375 0  1.408765 0.258788 0  0.8352619999999999 0.354298 0  0.885262 0.354298 0  0.8500000000000001 0.41 0  0.813105 0.302376 0  0.8359939999999999 0.2516405 0  0.880756 0.244682 0  0.9346730000000001 0.3699335 0  0.984673 0.3699335 0  0.95 0.41 0  0.9199349999999999 0.3142315 0  0.676894 0.0521365 0  0.680952 0 0  0.714742 0.153281 0  0.6718235 0.1062115 0  0.6235005 0.054075 0  1.629265 0.0514615 0  1.62381 0 0  1.59236 0.153937 0  1.636375 0.1041235 0  1.646395 0.1551375 0  1.6833 0.052662 0  1.73568 0.052662 0  1.72857 0 0  1.70988 0.1624805 0  1.74293 0.105083 0  1.7624 0.1622395 0  1.7882 0.052421 0  1.84058 0.052421 0  1.83333 0 0  1.8144 0.1461345 0  1.838565 0.112164 0  1.883695 0.059743 0  1.124605 0.3624205 0  1.174605 0.3624205 0  1.15 0.41 0  1.314255 0.2318395 0  1.28296 0.2598515 0  1.35806 0.2395255 0  1.375975 0.2955465 0  1.92648 0.052889 0  1.938095 0 0  1.924465 0.112632 0  1.949455 0.165069 0  0.352254 0.3716295 0  0.402254 0.3716295 0  0.35 0.41 0  0.513557 0.352693 0  0.563557 0.352693 0  0.55 0.41 0  0.5877675 0.2988765 0  0.5586344999999999 0.2508275 0  0.538972 0.1990895 0  0.452254 0.3716295 0  0.45 0.41 0  0.465811 0.3143225 0  0.411566 0.287403 0  0.3853285 0.2518815 0  0.1199575 0.2145665 0  0.0890808 0.2285505 0  0.1043493 0.253071 0  0.2245195 0.3717915 0  0.25 0.41 0  0.291071 0.03723765 0  0.23869 0.03723765 0  0.261905 0 0  0.265876 0.2435355 0  0.2563345 0.2232905 0  0.2528425 0.245245 0  0.284498 0.229205 0  1.032465 0.11335505 0  0.9973375 0.12542355 0  0.9615494999999999 0.08744735000000001 0  0.9220055 0.218733 0  0.9693989999999999 0.2091035 0  0.9611845 0.2882825 0  0.9117735 0.272647 0  1.229265 0.371775 0  1.279265 0.371775 0  1.25 0.41 0  1.02634 0.375414 0  1.07634 0.375414 0  1.05 0.41 0  1.011013 0.3353475 0  2.11607 0.0336915 0  2.16845 0.0336915 0  2.14762 0 0  2.16845 0.0849415 0  2.2 0.05125 0  2.100315 0.07553335 0  0.5562765000000001 0.159403 0  0.570414 0.1103435 0  0.5050935 0.1522235 0  1.32105 0.3794645 0  1.37105 0.3794645 0  1.35 0.41 0  1.333685 0.3126065 0  1.38439 0.331869 0  0.9994065 0.2494755 0  1.007568 0.29106 0  1.300315 0.3412395 0  1.2919 0.304917 0  2.13122 0.109057 0  2.094635 0.11720735 0  0.2725725 0.2024955 0  0.259684 0.2107905 0  0.2482962819455563 0.2129409872202754 0  0.2877025 0.2101195 0  2.123505 0.202068 0  2.079565 0.1721865 0  1.02826 0.03966905 0  0.9758784999999999 0.03966905 0  0.9952384999999999 0 0  1.049235 0.2965405 0  1.100945 0.3278345 0  1.0975 0.283547 0  0.5711200000000001 0.054075 0  0.5761905 0 0  0.523104 0.0562685 0  1.24959 0.2884845 0  1.20387 0.3241955 0  1.19493 0.27913 0  0.238785 0.2774815 0  0.2321125 0.311528 0  0.226118 0.3344655 0  0.2015985 0.3726739999999999 0  1.144525 0.2527845 0  1.190245 0.2170735 0  1.092815 0.2214905 0  0.2091915 0.3124105 0  0.220093 0.266387 0  0.243692 0.2543955 0  0.2353553390593274 0.2353553390593274 0  0.478422 0.113732 0  0.4611175 0.1534185 0  1.919065 0.370252 0  1.969065 0.370252 0  1.95 0.41 0  1.983635 0.312807 0  2.01457 0.352555 0  1.88907 0.316476 0  1.934895 0.277432 0  1.182685 0.1517565 0  1.097935 0.16905 0  1.128715 0.04418525 0  1.076335 0.04418525 0  1.1 0 0  1.056975 0.08385429999999999 0  1.08054 0.11787125 0  1.122445 0.13954925 0  1.16529 0.10057775 0  0.304922 0.07847404999999999 0  0.328137 0.0412364 0  0.380518 0.0412364 0  0.366667 0 0  0.388217 0.09869990000000001 0  0.426747 0.0574635 0  0.31696 0.1071899 0  0.279894 0.10319115 0  0.2725225 0.134971 0  0.2604845 0.10625515 0  0.228413 0.120237 0  0.2143565 0.129569 0  0.2390565 0.147367 0  1.30701 0.04462695 0  1.30952 0 0  1.241335 0.0563925 0  0.2357845 0.08845715 0  1.188955 0.0563925 0  1.20476 0 0  0.2066185 0.0512195 0  0.173851 0.08507819999999999 0  0.0367363 0.2360275 0  0 0.25625 0  0.264445 0.1607225 0  0.248207 0.1565175 0  0.2353553390593274 0.1646446609406726 0  0.2838545 0.1576585 0  0.130694 0.182523 0  0.1273445 0.195023 0  0.1517037180544437 0.1870590127797247 0  0.127532 0.162357 0  0.153537 0.154834 0  0.0523445 0.197523 0  0
[...]
<PointData  Vectors="u"> 
<DataArray  type="Float64"  Name="u"  NumberOfComponents="3" format="ascii">3.6206669600579405e-15 -1.8693792222953953e-15 0.0000000000000000e+00  0.0000000000000000e+00 0.0000000000000000e+00 0.0000000000000000e+00  0.0000000000000000e+00 0.0000000000000000e+00 0.0000000000000000e+00  1.2817929176651882e-15 1.0868289447954686e-15 0.0000000000000000e+00  0.0000000000000000e+00 0.0000000000000000e+00 0.0000000000000000e+00  0.0000000000000000e+00 0.0000000000000000e+00 0.0000000000000000e+00  0.0000000000000000e+00 0.0000000000000000e+00 0.0000000000000000e+00  0.0000000000000000e+00 0.0000000000000000e+00 0.0000000000000000e+00  0.0000000000000000e+00 -8.3407491162064981e-16 0.0000000000000000e+00  0.0000000000000000e+00 -9.5172302648814494e-16 0.0000000000000000e+00  0.0000000000000000e+00 4.9242934781089818e-16 0.0000000000000000e+00  0.0000000000000000e+00 0.0000000000000000e+00 0.0000000000000000e+00  0.0000000000000000e+00 -1.1032559849249961e-15 0.0000000000000000e+00  0.0000000000000000e+00 -5.5291581050141684e-16 0.0000000000000000e+00  0.0000000000000000e+00 2.2536354614620469e-15 0.0000000000000000e+00  0.0000000000000000e+00 0.0000000000000000e+00 0.0000000000000000e+00  0.0000000000000000e+00 -4.1531371036918164e-16 0.0000000000000000e+00  0.0000000000000000e+00 0.0000000000000000e+00 0.0000000000000000e+00  0.0000000000000000e+00 0.0000000000000000e+00 0.0000000000000000e+00  0.0000000000000000e+00 0.0000000000000000e+00 0.0000000000000000e+00  -4.9248720589200314e-16 0.0000000000000000e+00 0.0000000000000000e+00  0.0000000000000000e+00 0.0000000000000000e+00 0.0000000000000000e+00  0.0000000000000000e+00 0.0000000000000000e+00 0.0000000000000000e+00  6.4895393152920174e-16 0.0000000000000000e+00 0.0000000000000000e+00  -1.1969796487005960e-15 0.0000000000000000e+00 0.0000000000000000e+00  0.0000000000000000e+00 4.9587648517823546e-16 0.0000000000000000e+00  0.0000000000000000e+00 0.0000000000000000e+00 0.0000000000000000e+00  0.0000000000000000e+00 0.0000000000000000e+00 0.0000000000000000e+00  1.1250000003587644e+00 3.0440235457457114e-10 0.0000000000000000e+00  1.5000000000001545e+00 4.9415210291654521e-10 0.0000000000000000e+00  1.1249999996414664e+00 3.0396496953055455e-10 0.0000000000000000e+00  -7.1472479824799242e-16 0.0000000000000000e+00 0.0000000000000000e+00  0.0000000000000000e+00 -1.2132741215182337e-15 0.0000000000000000e+00  3.1622595436255710e-16 -3.2680261028857230e-16 0.0000000000000000e+00  0.0000000000000000e+00 0.0000000000000000e+00 0.0000000000000000e+00  0.0000000000000000e+00 0.0000000000000000e+00 0.0000000000000000e+00  0.0000000000000000e+00 0.0000000000000000e+00 0.0000000000000000e+00  0.0000000000000000e+00 0.0000000000000000e+00 0.0000000000000000e+00  0.0000000000000000e+00 0.0000000000000000e+00 0.0000000000000000e+00  0.0000000000000000e+00 0.0000000000000000e+00 0.0000000000000000e+00  0.0000000000000000e+00 0.0000000000000000e+00 0.0000000000000000e+00  0.0000000000000000e+00 0.0000000000000000e+00 0.0000000000000000e+00  0.0000000000000000e+00 0.0000000000000000e+00 0.0000000000000000e+00  0.0000000000000000e+00 7.4009847061680838e-16 0.0000000000000000e+00  0.0000000000000000e+00 5.5093877097783121e-16 0.0000000000000000e+00  0.0000000000000000e+00 0.0000000000000000e+00 0.0000000000000000e+00  0.0000000000000000e+00 0.0000000000000000e+00 0.0000000000000000e+00  0.0000000000000000e+00 0.0000000000000000e+00 0.0000000000000000e+00  -4.4325920470880908e-16 0.0000000000000000e+00 0.0000000000000000e+00  0.0000000000000000e+00 0.0000000000000000e+00 0.0000000000000000e+00  0.0000000000000000e+00 -1.5993816406289705e-15 0.0000000000000000e+00  0.0000000000000000e+00 0.0000000000000000e+00 0.0000000000000000e+00  1.1249999999999998e+00 0.0000000000000000e+00 0.0000000000000000e+00  1.4999999999999996e+00 0.0000000000000000e+00 0.0000000000000000e+00  1.1249999999999989e+00 0.0000000000000000e+00 0.0000000000000000e+00  0.0000000000000000e+00 0.0000000000000000e+00 0.0000000000000000e+00  1.2152669768555151e-15 1.2152668148628227e-15 0.0000000000000000e+00  -6.4856573853908974e-16 0.0000000000000000e+00 0.0000000000000000e+00  0.0000000000000000e+00 0.0000000000000000e+00 0.0000000000000000e+00  0.0000000000000000e+00 0.0000000000000000e+00 0.0000000000000000e+00  0.0000000000000000e+00 -6.1098573687266011e-16 0.0000000000000000e+00  0.0000000000000000e+00 0.0000000000000000e+00 0.0000000000000000e+00  3.3342438081148258e-16 0.0000000000000000e+00 0.0000000000000000e+00  1.2548609077353112e+00 -3.2687807497823423e-01 0.0000000000000000e+00  1.4202797572186532e+00 4.9572835816832059e-05 0.0000000000000000e+00  1.4473151216205549e+00 5.3854326651970583e-06 0.0000000000000000e+00  1.4599981049579067e+00 7.7336778483240565e-05 0.0000000000000000e+00  1.4889375278810513e+00 1.9672463063266879e-06 0.0000000000000000e+00  1.4928171825230905e+00 9.8033297884371278e-05 0.0000000000000000e+00  1.4998220107585682e+00 4.1047580890011316e-08 0.0000000000000000e+00  1.5000918759178761e+00 -8.3102486034587297e-05 0.0000000000000000e+00  1.4999960166096662e+00 -2.9887733669823315e-07 0.0000000000000000e+00  1.4999141015323789e+00 -1.1696406805088697e-03 0.0000000000000000e+00  1.4999999142679699e+00 -1.7360723517629223e-07 0.0000000000000000e+00  1.4591318072859700e+00 -8.1717102166286963e-03 0.0000000000000000e+00  1.4923530657228969e+00 -4.9497777752740422e-08 0.0000000000000000e+00  1.4889776195587776e+00 -1.1728975304090912e-08 0.0000000000000000e+00  1.4953954493971882e+00 7.5880152055985916e-10 0.0000000000000000e+00  1.4284466458757390e+00 -4.2927212589726449e-01 0.0000000000000000e+00  1.7553632483372907e+00 -2.7566217877120019e-01 0.0000000000000000e+00  1.4163696358125899e+00 5.8984147233268431e-10 0.0000000000000000e+00  9.7468252404210154e-01 3.7016795968616063e-10 0.0000000000000000e+00  1.2752347463991665e+00 5.6411071340624408e-01 0.0000000000000000e+00  1.5559443348607143e+00 -2.9608593461745752e-01 0.0000000000000000e+00  1.0826467133884177e+00 2.9463785902109890e-01 0.0000000000000000e+00  8.2734478886006002e-01 -4.1538941347907521e-01 0.0000000000000000e+00  1.2183959139540586e+00 -2.3617763801120045e-02 0.0000000000000000e+00  1.1314237707498727e+00 -6.1007216092798910e-01 0.0000000000000000e+00  3.4050726997992192e-01 2.2152800135033401e-01 0.0000000000000000e+00  9.3398474652175367e-01 -1.3847090694735640e-08 0.0000000000000000e+00  1.1610548733916930e+00 -5.5614049542941371e-09 0.0000000000000000e+00  1.0771906651179060e+00 -5.6464030145134091e-08 0.0000000000000000e+00  1.1629152116029007e+00 -2.1450119234740768e-03 0.0000000000000000e+00  1.1175883381098171e+00 -1.4131839197538148e-07 0.0000000000000000e+00  1.1346722508652345e+00 -7.9041064294077811e-05 0.0000000000000000e+00  1.0696131959849948e+00 -1.4509191036568520e-07 0.0000000000000000e+00  1.1871709345846908e+00 9.7812336980617934e-05 0.0000000000000000e+00  1.1964831781975827e+00 4.2642881337387771e-06 0.0000000000000000e+00  1.3814888586291578e+00 4.1362133371387205e-05 0.0000000000000000e+00  9.4340109428964614e-01 4.0722466409114226e-05 0.0000000000000000e+00  1.3186291125549172e+00 8.3175932324731357e-07 0.0000000000000000e+00  1.2101792219883969e+00 5.4862831549996672e-10 0.0000000000000000e+00  1.2389894989900261e+00 -2.8886899488815441e-09 0.0000000000000000e+00  1.1419408023842854e+00 -1.1031086895497273e-08 0.0000000000000000e+00  1.0218142180281782e+00 1.1289980415865908e-07 0.0000000000000000e+00  1.1453787198024623e+00 -4.2414578337165022e-08 0.0000000000000000e+00  1.0725889274121432e+00 4.6581942690920720e-05 0.0000000000000000e+00  1.1280885837528172e+00 -1.1205196491518651e-07 0.0000000000000000e+00  1.1638609583868489e+00 -6.5400481451090579e-04 0.0000000000000000e+00  1.1151380937836628e+00 -1.8152634667993285e-07 0.0000000000000000e+00  1.1377614938195570e+00 -4.6562426812805105e-04 0.0000000000000000e+00  1.1237245862215817e+00 -3.5262616474316672e-05 0.0000000000000000e+00  1.1486018353052549e+00 1.6432322481917736e-10 0.0000000000000000e+00  1.3678930310054556e+00 -1.0937559638858836e-01 0.0000000000000000e+00  6.0201669722376239e-01 5.4898356832489115e-01 0.0000000000000000e+00  1.0693518098123793e+00 9.1132070051241244e-06 0.0000000000000000e+00  1.0377270266121152e+00 -1.1484604633467904e-01 0.0000000000000000e+00  1.4973436731796563e+00 -6.1100139112244935e-03 0.0000000000000000e+00  1.3948795592437473e+00 5.6249095916329339e-10 0.0000000000000000e+00  1.4866219058217762e+00 -1.2488138621581874e-09 0.0000000000000000e+00  6.3095643053368200e-01 -1.0443226469350203e-01 0.0000000000000000e+00  1.5428032936379141e+00 3.3021006902285965e-01 0.0000000000000000e+00  3.1529501783710207e-01 -2.9257544815973580e-01 0.0000000000000000e+00  1.2047638912408882e+00 7.8244356394371828e-02 0.0000000000000000e+00  9.3642690052826105e-01 2.5975272231976119e-05 0.0000000000000000e+00  1.4378957997728019e+00 9.6702444173001124e-05 0.0000000000000000e+00  9.1016795614341162e-01 1.2710738977093842e-06 0.0000000000000000e+00  8.4145832582350966e-01 1.5626195595497670e-05 0.0000000000000000e+00  8.2402955358132302e-01 1.9797591604506497e-10 0.0000000000000000e+00  1.1912451758827300e+00 1.0476508547536605e-02 0.0000000000000000e+00  7.6059923179073663e-01 8.1159845851816990e-08 0.0000000000000000e+00  1.7044771674127910e+00 -1.9358092587679024e-01 0.0000000000000000e+00  1.8947069333597470e+00 -1.1325523782467952e-02 0.0000000000000000e+00  1.4927321760061869e+00 2.1576432437051616e-05 0.0000000000000000e+00  9.3778986123928076e-01 -9.8923257548866886e-11 0.0000000000000000e+00  1.0145057657652263e+00 1.3252225971657267e-05 0.0000000000000000e+00  1.1809616870744166e+00 2.5566530720719877e-01 0.0000000000000000e+00  1.0044275732427221e+00 5.5271657824434861e-01 0.0000000000000000e+00  1.1462981647651109e+00 5.4743599034998358e-01 0.0000000000000000e+00  1.7655520627599102e+00 3.6703745345518582e-02 0.0000000000000000e+00  1.0985217336644475e+00 -5.7250121578534452e-01 0.0000000000000000e+00  1.7766588017298752e+00 4.6628331391912847e-01 0.0000000000000000e+00  1.1101119490791154e+00 1.1007762773304261e-01 0.0000000000000000e+00  1.2391899519452194e+00 -4.2158792080058144e-01 0.0000000000000000e+00  1.3646298855357346e+00 2.3102646809769693e-02 0.0000000000000000e+00  7.3381995092622021e-01 1.6869535346334456e-02 0.0000000000000000e+00  7.7348803404953137e-01 1.9710379073463624e-10 0.0000000000000000e+00  1.2967966769060686e+00 4.1854583747908317e-10 0.0000000000000000e+00  1.4790924088861170e+00 5.2984482846602552e-10 0.0000000000000000e+00  1.4062499997441888e+00 4.4216487111413984e-10 0.0000000000000000e+00  5.4983050945775624e-01 1.1457665249637485e-10 0.0000000000000000e+00  5.4983050972878711e-01 1.3528025406085927e-10 0.0000000000000000e+00  0.0000000000000000e+00 -4.1942928480347564e-16 0.0000000000000000e+00  1.1565887891576863e+00 -4.9529846836684981e-02 0.0000000000000000e+00  9.3266327143358962e-01 -1.0776536585941794e-01 0.0000000000000000e+00  0.0000000000000000e+00 -6.4417102451077932e-16 0.0000000000000000e+00  7.4038460896207792e-01 1.1424624983405772e-01 0.0000000000000000e+00  5.2793151343048528e-01 5.4630870690872940e-02 0.0000000000000000e+00  0.0000000000000000e+00 0.0000000000000000e+00 0.0000000000000000e+00  1.0639880290687287e+00 2.3038717020651606e-01 0.0000000000000000e+00  6.5624999999999956e-01 0.0000000000000000e+00 0.0000000000000000e+00  1.6005458643722914e+00 -4.1479508871215881e-01 0.0000000000000000e+00  1.0904761562367533e+00 -1.0842334677490117e-01 0.0000000000000000e+00  1.1407711868901353e+00 -1.7076853829524677e-01 0.0000000000000000e+00  1.3080054812016453e+00 4.9473789486197844e-01 0.0000000000000000e+00  1.2801127431147081e+00 3.5771208891926864e-01 0.0000000000000000e+00  1.2507316854413586e+00 -5.3228743494554753e-01 0.0000000000000000e+00  1.1057176084343410e+00 -3.9275349387196851e-01 0.0000000000000000e+00  1.3244389602382274e+00 -4.1802564213337257e-01 0.0000000000000000e+00  1.6769951516893746e+00 -4.9625433973323713e-01 0.0000000000000000e+00  1.4143432723902305e+00 -5.7575266754174304e-01 0.0000000000000000e+00  1.3287947176640713e+00 6.2942985307415059e-10 0.0000000000000000e+00  1.4446590342074286e+00 7.1765609209472337e-10 0.0000000000000000e+00  1.4877530020800092e+00 7.6370297220379605e-10 0.0000000000000000e+00  1.0659981413482016e+00 4.2870546257184856e-10 0.0000000000000000e+00  6.7414314272529108e-01 1.5247506562060824e-10 0.0000000000000000e+00  1.3908869454949055e+00 5.1377585456046497e-10 0.0000000000000000e+00  1.3429285860589824e+00 6.6504511570332257e-10 0.0000000000000000e+00  1.3536627802011076e+00 -6.1409438301267404e-02 0.0000000000000000e+00  1.4321077949307552e+00 -3.9315677641383648e-02 0.0000000000000000e+00  1.4360353228201428e+00 -3.0529674599311437e-02 0.0000000000000000e+00  1.4737198898879229e+00 5.2238070565747453e-10 0.0000000000000000e+00  1.2806973291704069e+00 4.0633111000278606e-10 0.0000000000000000e+00  1.4062500002562022e+00 4.4229351179293538e-10 0.0000000000000000e+00  1.4609486760324857e+00 -2.5514955257702552e-09 0.0000000000000000e+00  1.4999715047451041e+00 -4.8493257704657782e-09 0.0000000000000000e+00  1.4051731435065578e+00 -6.6270390843949859e-09 0.0000000000000000e+00  1.3782500699179068e+00 -3.5373718477256304e-09 0.0000000000000000e+00  1.4430694640368120e+00 -1.0268227752606281e-08 0.0000000000000000e+00  1.4160892143503243e+00 -2.1251667609458618e-03 0.0000000000000000e+00  1.4997532891779004e+00 -2.8485286356377502e-03 0.0000000000000000e+00  1.4110194502156308e+00 -1.5918750312278530e-03 0.0000000000000000e+00  1.2401537644861451e+00 -2.4621923973246779e-01 0.0000000000000000e+00  1.2786459296011645e+00 -2.3889508397654816e-01 0.0000000000000000e+00  4.0773534190527222e-01 3.6469600105327832e-01 0.0000000000000000e+00  3.1661273972294945e-01 3.7839233151994556e-01 0.0000000000000000e+00  3.8633962224584977e-16 0.0000000000000000e+00 0.0000000000000000e+00  1.7807450229501626e-01 2.3178326959860265e-01 0.0000000000000000e+00  1.1264225192655707e-01 9.3853191176181919e-02 0.0000000000000000e+00  3.2963035937802989e-16 4.1596319361774330e-16 0.0000000000000000e+00  9.0799762386830429e-01 -5.6487007830464320e-01 0.0000000000000000e+00  1.4259431907429787e+00 5.8434320996125659e-05 0.0000000000000000e+00  1.4990427729670139e+00 5.2257322355440312e-05 0.0000000000000000e+00  1.4983066445317557e+00 6.9198701716694162e-05 0.0000000000000000e+00  1.3923825431247330e+00 3.3641368778331005e-06 0.0000000000000000e+00  1.4741770129608227e+00 6.3323885451845608e-06 0.0000000000000000e+00  1.4961340487712971e+00 3.5508059078737275e-06 0.0000000000000000e+00  1.1140887991404311e+00 1.1493708847396671e-06 0.0000000000000000e+00  1.3413219228762252e+00 7.8878046112907811e-07 0.0000000000000000e+00  6.1779659260637920e-01 1.5838190978890013e-05 0.0000000000000000e+00  6.1782351529001334e-01 1.2046329790856251e-05 0.0000000000000000e+00  0.0000000000000000e+00 1.4046561533544002e-15 0.0000000000000000e+00  1.3636139180807720e+00 7.5428803832058570e-05 0.0000000000000000e+00  1.3177737656797350e+00 7.0746081566616380e-05 0.0000000000000000e+00  1.4797173886496744e+00 9.7141252176033307e-05 0.0000000000000000e+00  1.0985749436814385e+00 2.9702240095712261e-05 0.0000000000000000e+00  1.3781288090874546e+00 3.7378267465530891e-05 0.0000000000000000e+00  6.5530366263074624e-01 -5.0606503132277885e-06 0.0000000000000000e+00  5.8199191146469820e-01 -5.0343932278202097e-08 0.0000000000000000e+00  5.8199187046256706e-01 4.1123553467778178e-09 0.0000000000000000e+00  0.0000000000000000e+00 0.0000000000000000e+00 0.0000000000000000e+00  1.3757962770535803e+00 1.5529107620427086e-07 0.0000000000000000e+00  1.4964882575348604e+00 6.8328698463963046e-07 0.0000000000000000e+00  1.0697412091491694e+00 -1.2952424684956918e-07 0.0000000000000000e+00  1.3996017315881013e+00 -2.1810090809274909e-07 0.0000000000000000e+00  6.4888551805527483e-01 -6.7394431319062888e-08 0.0000000000000000e+00  6.5525047650847656e-01 -5.7521447891310825e-05 0.0000000000000000e+00  0.0000000000000000e+00 6.7051229144527986e-16 0.0000000000000000e+00  1.4054535724890991e+00 -7.5047939442032089e-05 0.0000000000000000e+00  1.4981743851523406e+00 5.2598352930032428e-05 0.0000000000000000e+00  1.1308401511532387e+00 -1.9145666298580176e-04 0.0000000000000000e+00  1.4090180009526476e+00 -3.4651249342003567e-04 0.0000000000000000e+00  6.6585305939569750e-01 -1.5118185518368828e-04 0.0000000000000000e+00  6.4888562579673870e-01 -5.4171274926489783e-08 0.0000000000000000e+00  5.4072686378699973e-16 0.0000000000000000e+00 0.0000000000000000e+00  1.4031644488098449e+00 -2.6955059008046802e-07 0.0000000000000000e+00  1.4999411938720917e+00 -2.6060116857992496e-07 0.0000000000000000e+00  1.1216410523300309e+00 -1.5387413629641961e-07 0.0000000000000000e+00  1.4064125898800173e+00 -2.2817797762197544e-07 0.0000000000000000e+00  6.5856961838924766e-01 -3.9006807906043226e-08 0.0000000000000000e+00  1.3930664991875015e+00 2.8097099257990026e-10 0.0000000000000000e+00  1.4994286257221079e+00 2.8374732313777067e-10 0.0000000000000000e+00  6.8374664677893193e-01 -2.2272714235487062e-09 0.0000000000000000e+00  6.8374664411992470e-01 -8.0714427371715825e-10 0.0000000000000000e+00  0.0000000000000000e+00 0.0000000000000000e+00 0.0000000000000000e+00  1.3878966715682854e+00 -2.0556577528819144e-08 0.0000000000000000e+00  1.4999230804264652e+00 -2.5931362251479197e-08 0.0000000000000000e+00  5.2278400208155662e-01 -5.2939511448411411e-09 0.0000000000000000e+00  5.2278399277838417e-01 -2.6326220814285154e-09 0.0000000000000000e+00  0.0000000000000000e+00 0.0000000000000000e+00 0.0000000000000000e+00  1.0547575567476819e+00 -9.4602125047876187e-09 0.0000000000000000e+00  1.3236896162319411e+00 -3.3958484363731837e-08 0.0000000000000000e+00  6.2110991353540823e-01 -2.2578665741896619e-08 0.0000000000000000e+00  6.2110988004573053e-01 -1.3465195503802706e-08 0.0000000000000000e+00  0.0000000000000000e+00 0.0000000000000000e+00 0.0000000000000000e+00  1.0081938986494734e+00 -2.9472070662506568e-08 0.0000000000000000e+00  1.3639553392806045e+00 -6.3000952910501292e-08 0.0000000000000000e+00  1.3943928711179359e+00 -1.2238896816230235e-07 0.0000000000000000e+00  1.4981010497716520e+00 -9.9087924369442164e-08 0.0000000000000000e+00  6.8551378963137044e-01 -1.1242945806224371e-03 0.0000000000000000e+00  6.8431356839790070e-01 -3.1828987010500923e-04 0.0000000000000000e+00  0.0000000000000000e+00 0.0000000000000000e+00 0.0000000000000000e+00  1.4141444565385324e+00 -5.1949674244941959e-03 0.0000000000000000e+00  1.4206134644912549e+00 -1.8361144393312964e-03 0.0000000000000000e+00  6.5070943757172117e-01 -5.5241531414774133e-08 0.0000000000000000e+00  6.5070935678230690e-01 -3.9288471294732435e-08 0.0000000000000000e+00  0.0000000000000000e+00 0.0000000000000000e+00 0.0000000000000000e+00  1.0976429886055430e+00 -9.4028552884647381e-08 0.0000000000000000e+00  1.4044876346292363e+00 -1.8658252825291007e-07 0.0000000000000000e+00  1.4050131869608842e+00 -2.4829513070507947e-07 0.0000000000000000e+00  1.4999986904235905e+00 -2.4525545728331415e-07 0.0000000000000000e+00  6.6338336884684301e-01 -2.9386610881311525e-05 0.0000000000000000e+00  6.6335344145996389e-01 3.3395266670034533e-05 0.0000000000000000e+00  0.0000000000000000e+00 0.0000000000000000e+00 0.0000000000000000e+00  1.1485918514728055e+00 -5.9676767480225444e-04 0.0000000000000000e+00  1.4137373131494844e+00 -5.7102932252029728e-04 0.0000000000000000e+00  1.4092863139486624e+00 -1.0936212789068250e-04 0.0000000000000000e+00  1.5000803715315818e+00 -4.4173095314685510e-04 0.0000000000000000e+00  6.1566336397689769e-01 -5.5691847976805887e-08 0.0000000000000000e+00  6.1566326235342206e-01 -6.2775036823111721e-08 0.0000000000000000e+00  0.0000000000000000e+00 0.0000000000000000e+00 0.0000000000000000e+00  1.0939550465140293e+00 -1.7429105424141293e-07 0.0000000000000000e+00  1.3930569827965937e+00 -2.621