<?xml version="1.0"?>
<VTKFile type="UnstructuredGrid"  version="0.1"  >
<UnstructuredGrid>
<Piece  NumberOfPoints="525" NumberOfCells="924">
<Points>
<DataArray  type="Float64"  NumberOfComponents="3"  format="ascii">0 0 0  2.2 0 0  2.2 0.41 0  0 0.41 0  0.15 0.2 0  0.25 0.2 0  0.2 0.15 0  0.2 0.25 0  0.104762 0 0  0.209524 0 0  0.314286 0 0  0.419048 0 0  0.52381 0 0  0.628571 0 0  0.733333 0 0  0.838095 0 0  0.9428569999999999 0 0  1.04762 0 0  1.15238 0 0  1.25714 0 0  1.3619 0 0  1.46667 0 0  1.57143 0 0  1.67619 0 0  1.78095 0 0  1.88571 0 0  1.99048 0 0  2.09524 0 0  2.2 0.1025 0  2.2 0.205 0  2.2 0.3075 0  2.1 0.41 0  2 0.41 0  1.9 0.41 0  1.8 0.41 0  1.7 0.41 0  1.6 0.41 0  1.5 0.41 0  1.4 0.41 0  1.3 0.41 0  1.2 0.41 0  1.1 0.41 0  1 0.41 0  0.9 0.41 0  0.8 0.41 0  0.7 0.41 0  0.6 0.41 0  0.5 0.41 0  0.4 0.41 0  0.3 0.41 0  0.2 0.41 0  0.1 0.41 0  0 0.3075 0  0 0.205 0  0 0.1025 0  0.1566987973585577 0.2250001169958213 0  0.1749998830041787 0.2433012026414423 0  0.2250001169958213 0.2433012026414423 0  0.2433012026414423 0.2250001169958213 0  0.2433012026414423 0.1749998830041787 0  0.2250001169958213 0.1566987973585577 0  0.1749998830041787 0.1566987973585577 0  0.1566987973585577 0.1749998830041787 0  0.352033 0.262216 0  1.04579 0.252253 0  1.24065 0.243419 0  0.985775 0.171509 0  1.30324 0.187395 0  0.890988 0.190768 0  1.39085 0.202767 0  0.801464 0.204685 0  1.49904 0.204666 0  0.704267 0.202289 0  1.60238 0.204951 0  0.487789 0.19191 0  1.72935 0.219637 0  1.83335 0.187427 0  2.03359 0.193642 0  0.314663 0.307348 0  0.249039 0.333583 0  2.12147 0.253405 0  2.06373 0.0836837 0  0.0734726 0.267055 0  0.143989 0.0677174 0  0.0613613 0.33781 0  0.299628 0.236829 0  0.527114 0.295386 0  0.262384 0.26549 0  0.275777 0.18341 0  1.74578 0.330928 0  1.84001 0.302448 0  1.64998 0.313838 0  0.648421 0.302367 0  1.54544 0.308508 0  0.755686 0.306156 0  1.42668 0.314809 0  0.870524 0.298596 0  1.22553 0.112785 0  1.05603 0.147372 0  0.969346 0.329867 0  1.32527 0.276284 0  2.02914 0.29511 0  1.88168 0.119486 0  1.79545 0.104842 0  1.35688 0.0892539 0  1.69041 0.105324 0  0.914199 0.09555660000000001 0  1.58234 0.102923 0  0.61843 0.10815 0  1.47999 0.101161 0  0.725217 0.104273 0  0.821727 0.102306 0  1.96725 0.105778 0  0.418624 0.241547 0  0.135226 0.239087 0  1.14921 0.314841 0  0.404508 0.333259 0  0.590155 0.206269 0  2.12554 0.150731 0  1.93166 0.22436 0  0.104689 0.190046 0  0.267856 0.07447529999999999 0  0.269368 0.221581 0  0.434446 0.114927 0  1.0089 0.07933809999999999 0  0.953023 0.246698 0  1.25853 0.33355 0  1.05268 0.340828 0  2.1369 0.067383 0  0.522398 0.112537 0  1.3421 0.348929 0  0.215186 0.289473 0  0.203197 0.335348 0  1.13984 0.190728 0  1.93813 0.330504 0  1.10505 0.0883705 0  0.341988 0.0824728 0  0.253113 0.138035 0  0.291932 0.131907 0  0.203713 0.102439 0  0.150375 0.134668 0  0.151494 0.309119 0  0.354384 0.17896 0  0.06853670000000001 0.100776 0  0.424128 0.180088 0  0.474925 0.0568661 0  2.10843 0.347669 0  2.160735 0.2804525 0  2.160735 0.2292025 0  2.2 0.25625 0  2.079485 0.04184185 0  2.027105 0.04184185 0  2.04286 0 0  0.1767565 0.0338587 0  0.1243755 0.0338587 0  0.157143 0 0  0.08068065000000001 0.373905 0  0.03068065 0.373905 0  0.05 0.41 0  0.03068065 0.322655 0  0 0.35875 0  0.281851 0.3204655 0  0.2745195 0.3717915 0  0.3073315 0.358674 0  0.06741695 0.3024325 0  0.0367363 0.2872775 0  0.3071455 0.2720885 0  0.3258305 0.2495225 0  0.333348 0.284782 0  0.2557115 0.2995365 0  0.2885235 0.286419 0  2.075305 0.2742575 0  2.031365 0.244376 0  2.07753 0.2235235 0  2.01549 0.09473085000000001 0  1.978865 0.052889 0  2.00042 0.14971 0  2.04866 0.13866285 0  0.472869 0.2684665 0  0.4532065 0.2167285 0  0.5074514999999999 0.243648 0  2.16277 0.1778655 0  2.16277 0.1266155 0  2.2 0.15375 0  1.90667 0.171923 0  1.882505 0.2058935 0  1.857515 0.1534565 0  1.885835 0.263404 0  1.83668 0.2449375 0  0.6042925 0.1572095 0  0.647211 0.204279 0  0.6613485 0.1552195 0  0.3595855 0.3203035 0  0.3782705 0.2977375 0  0.155113 0.241194 0  0.1459625 0.2320435 0  0.1646446609406726 0.2353553390593274 0  0.259539 0.179205 0  0.2628885 0.191705 0  0.2482962819455563 0.1870590127797247 0  0.281006 0.2511595 0  1.0209025 0.1594405 0  1.05091 0.1998125 0  1.0157825 0.211881 0  1.264385 0.15009 0  1.23309 0.178102 0  1.271945 0.215407 0  1.291205 0.10101945 0  1.33006 0.13832445 0  0.928528 0.0477783 0  0.876147 0.0477783 0  0.890476 0 0  0.9025935 0.1431623 0  0.9499869999999999 0.1335328 0  0.9383815 0.1811385 0  0.867963 0.0989313 0  0.8563575 0.146537 0  0.8299110000000001 0.051153 0  1.411775 0.04462695 0  1.35939 0.04462695 0  1.414285 0 0  1.373865 0.14601045 0  1.347045 0.195081 0  1.418435 0.09520745 0  1.43542 0.151964 0  1.47333 0.0505805 0  0.7775300000000001 0.051153 0  0.785714 0 0  0.8115954999999999 0.1534955 0  0.8462259999999999 0.1977265 0  0.7734719999999999 0.1032895 0  0.7633405 0.154479 0  0.729275 0.0521365 0  1.52571 0.0505805 0  1.51905 0 0  1.489515 0.1529135 0  1.444945 0.2037165 0  1.531165 0.102042 0  1.54069 0.1537945 0  1.576885 0.0514615 0  1.9804 0.259735 0  1.982625 0.209001 0  1.820005 0.356224 0  1.870005 0.356224 0  1.85 0.41 0  1.78468 0.2610425 0  1.78135 0.203532 0  1.72289 0.370464 0  1.77289 0.370464 0  1.75 0.41 0  1.792895 0.316688 0  1.737565 0.2752825 0  1.62499 0.361919 0  1.67499 0.361919 0  1.65 0.41 0  1.69788 0.322383 0  1.689665 0.2667375 0  1.62618 0.2593945 0  1.665865 0.212294 0  0.6242105 0.3561835 0  0.6742105 0.3561835 0  0.6499999999999999 0.41 0  0.6192880000000001 0.254318 0  0.6763440000000001 0.252328 0  1.52272 0.359254 0  1.57272 0.359254 0  1.55 0.41 0  1.59771 0.311173 0  1.57391 0.2567295 0  1.52224 0.256587 0  1.55071 0.2048085 0  0.727843 0.358078 0  0.7778430000000001 0.358078 0  0.75 0.41 0  0.7020535 0.3042615 0  0.7299765 0.2542225 0  0.778575 0.2554205 0  0.7528655 0.203487 0  1.41334 0.3624045 0  1.46334 0.3624045 0  1.45 0.41 0  1.48606 0.3116585 0  1.46286 0.2597375 0  1.408765 0.258788 0  0.8352619999999999 0.354298 0  0.885262 0.354298 0  0.8500000000000001 0.41 0  0.813105 0.302376 0  0.8359939999999999 0.2516405 0  0.880756 0.244682 0  0.9346730000000001 0.3699335 0  0.984673 0.3699335 0  0.95 0.41 0  0.9199349999999999 0.3142315 0  0.676894 0.0521365 0  0.680952 0 0  0.714742 0.153281 0  0.6718235 0.1062115 0  0.6235005 0.054075 0  1.629265 0.0514615 0  1.62381 0 0  1.59236 0.153937 0  1.636375 0.1041235 0  1.646395 0.1551375 0  1.6833 0.052662 0  1.73568 0.052662 0  1.72857 0 0  1.70988 0.1624805 0  1.74293 0.105083 0  1.7624 0.1622395 0  1.7882 0.052421 0  1.84058 0.052421 0  1.83333 0 0  1.8144 0.1461345 0  1.838565 0.112164 0  1.883695 0.059743 0  1.124605 0.3624205 0  1.174605 0.3624205 0  1.15 0.41 0  1.314255 0.2318395 0  1.28296 0.2598515 0  1.35806 0.2395255 0  1.375975 0.2955465 0  1.92648 0.052889 0  1.938095 0 0  1.924465 0.112632 0  1.949455 0.165069 0  0.352254 0.3716295 0  0.402254 0.3716295 0  0.35 0.41 0  0.513557 0.352693 0  0.563557 0.352693 0  0.55 0.41 0  0.5877675 0.2988765 0  0.5586344999999999 0.2508275 0  0.538972 0.1990895 0  0.452254 0.3716295 0  0.45 0.41 0  0.465811 0.3143225 0  0.411566 0.287403 0  0.3853285 0.2518815 0  0.1199575 0.2145665 0  0.0890808 0.2285505 0  0.1043493 0.253071 0  0.2245195 0.3717915 0  0.25 0.41 0  0.291071 0.03723765 0  0.23869 0.03723765 0  0.261905 0 0  0.265876 0.2435355 0  0.2563345 0.2232905 0  0.2528425 0.245245 0  0.284498 0.229205 0  1.032465 0.11335505 0  0.9973375 0.12542355 0  0.9615494999999999 0.08744735000000001 0  0.9220055 0.218733 0  0.9693989999999999 0.2091035 0  0.9611845 0.2882825 0  0.9117735 0.272647 0  1.229265 0.371775 0  1.279265 0.371775 0  1.25 0.41 0  1.02634 0.375414 0  1.07634 0.375414 0  1.05 0.41 0  1.011013 0.3353475 0  2.11607 0.0336915 0  2.16845 0.0336915 0  2.14762 0 0  2.16845 0.0849415 0  2.2 0.05125 0  2.100315 0.07553335 0  0.5562765000000001 0.159403 0  0.570414 0.1103435 0  0.5050935 0.1522235 0  1.32105 0.3794645 0  1.37105 0.3794645 0  1.35 0.41 0  1.333685 0.3126065 0  1.38439 0.331869 0  0.9994065 0.2494755 0  1.007568 0.29106 0  1.300315 0.3412395 0  1.2919 0.304917 0  2.13122 0.109057 0  2.094635 0.11720735 0  0.2725725 0.2024955 0  0.259684 0.2107905 0  0.2482962819455563 0.2129409872202754 0  0.2877025 0.2101195 0  2.123505 0.202068 0  2.079565 0.1721865 0  1.02826 0.03966905 0  0.9758784999999999 0.03966905 0  0.9952384999999999 0 0  1.049235 0.2965405 0  1.100945 0.3278345 0  1.0975 0.283547 0  0.5711200000000001 0.054075 0  0.5761905 0 0  0.523104 0.0562685 0  1.24959 0.2884845 0  1.20387 0.3241955 0  1.19493 0.27913 0  0.238785 0.2774815 0  0.2321125 0.311528 0  0.226118 0.3344655 0  0.2015985 0.3726739999999999 0  1.144525 0.2527845 0  1.190245 0.2170735 0  1.092815 0.2214905 0  0.2091915 0.3124105 0  0.220093 0.266387 0  0.243692 0.2543955 0  0.2353553390593274 0.2353553390593274 0  0.478422 0.113732 0  0.4611175 0.1534185 0  1.919065 0.370252 0  1.969065 0.370252 0  1.95 0.41 0  1.983635 0.312807 0  2.01457 0.352555 0  1.88907 0.316476 0  1.934895 0.277432 0  1.182685 0.1517565 0  1.097935 0.16905 0  1.128715 0.04418525 0  1.076335 0.04418525 0  1.1 0 0  1.056975 0.08385429999999999 0  1.08054 0.11787125 0  1.122445 0.13954925 0  1.16529 0.10057775 0  0.304922 0.07847404999999999 0  0.328137 0.0412364 0  0.380518 0.0412364 0  0.366667 0 0  0.388217 0.09869990000000001 0  0.426747 0.0574635 0  0.31696 0.1071899 0  0.279894 0.10319115 0  0.2725225 0.134971 0  0.2604845 0.10625515 0  0.228413 0.120237 0  0.2143565 0.129569 0  0.2390565 0.147367 0  1.30701 0.04462695 0  1.30952 0 0  1.241335 0.0563925 0  0.2357845 0.08845715 0  1.188955 0.0563925 0  1.20476 0 0  0.2066185 0.0512195 0  0.173851 0.08507819999999999 0  0.0367363 0.2360275 0  0 0.25625 0  0.264445 0.1607225 0  0.248207 0.1565175 0  0.2353553390593274 0.1646446609406726 0  0.2838545 0.1576585 0  0.130694 0.182523 0  0.1273445 0.195023 0  0.1517037180544437 0.1870590127797247 0  0.127532 0.162357 0  0.153537 0.154834 0  0.0523445 0.197523 0  0
[...]
<PointData  Vectors="u"> 
<DataArray  type="Float64"  Name="u"  NumberOfComponents="3" format="ascii">0.0000000000000000e+00 -8.0400096632387394e-16 0.0000000000000000e+00  0.0000000000000000e+00 0.0000000000000000e+00 0.0000000000000000e+00  0.0000000000000000e+00 0.0000000000000000e+00 0.0000000000000000e+00  0.0000000000000000e+00 3.6645184400005617e-16 0.0000000000000000e+00  0.0000000000000000e+00 0.0000000000000000e+00 0.0000000000000000e+00  0.0000000000000000e+00 0.0000000000000000e+00 0.0000000000000000e+00  0.0000000000000000e+00 0.0000000000000000e+00 0.0000000000000000e+00  0.0000000000000000e+00 0.0000000000000000e+00 0.0000000000000000e+00  0.0000000000000000e+00 0.0000000000000000e+00 0.0000000000000000e+00  0.0000000000000000e+00 1.0781695540561790e-15 0.0000000000000000e+00  0.0000000000000000e+00 -5.6853448589797267e-16 0.0000000000000000e+00  0.0000000000000000e+00 0.0000000000000000e+00 0.0000000000000000e+00  0.0000000000000000e+00 -5.8378713149270399e-16 0.0000000000000000e+00  0.0000000000000000e+00 9.9553107359961218e-16 0.0000000000000000e+00  0.0000000000000000e+00 0.0000000000000000e+00 0.0000000000000000e+00  0.0000000000000000e+00 -6.7722420773335356e-16 0.0000000000000000e+00  0.0000000000000000e+00 3.0076159686332278e-16 0.0000000000000000e+00  0.0000000000000000e+00 0.0000000000000000e+00 0.0000000000000000e+00  0.0000000000000000e+00 0.0000000000000000e+00 0.0000000000000000e+00  0.0000000000000000e+00 5.4607027188409682e-16 0.0000000000000000e+00  0.0000000000000000e+00 0.0000000000000000e+00 0.0000000000000000e+00  0.0000000000000000e+00 0.0000000000000000e+00 0.0000000000000000e+00  0.0000000000000000e+00 0.0000000000000000e+00 0.0000000000000000e+00  0.0000000000000000e+00 4.2143875692511168e-16 0.0000000000000000e+00  -3.4857668710938531e-16 0.0000000000000000e+00 0.0000000000000000e+00  0.0000000000000000e+00 -1.3914962884743889e-15 0.0000000000000000e+00  0.0000000000000000e+00 0.0000000000000000e+00 0.0000000000000000e+00  0.0000000000000000e+00 -3.5458797442260872e-16 0.0000000000000000e+00  1.1250000003575937e+00 3.0500164840385837e-10 0.0000000000000000e+00  1.5000000000001521e+00 4.9521320341422290e-10 0.0000000000000000e+00  1.1249999996426285e+00 3.0456436972843015e-10 0.0000000000000000e+00  0.0000000000000000e+00 0.0000000000000000e+00 0.0000000000000000e+00  0.0000000000000000e+00 -3.2964989490560358e-16 0.0000000000000000e+00  -1.0788689770118542e-15 0.0000000000000000e+00 0.0000000000000000e+00  0.0000000000000000e+00 0.0000000000000000e+00 0.0000000000000000e+00  0.0000000000000000e+00 0.0000000000000000e+00 0.0000000000000000e+00  0.0000000000000000e+00 0.0000000000000000e+00 0.0000000000000000e+00  0.0000000000000000e+00 0.0000000000000000e+00 0.0000000000000000e+00  0.0000000000000000e+00 0.0000000000000000e+00 0.0000000000000000e+00  0.0000000000000000e+00 0.0000000000000000e+00 0.0000000000000000e+00  0.0000000000000000e+00 0.0000000000000000e+00 0.0000000000000000e+00  0.0000000000000000e+00 0.0000000000000000e+00 0.0000000000000000e+00  0.0000000000000000e+00 4.5226638895863459e-16 0.0000000000000000e+00  0.0000000000000000e+00 -5.2284486957762173e-16 0.0000000000000000e+00  0.0000000000000000e+00 -4.4974504863165594e-16 0.0000000000000000e+00  0.0000000000000000e+00 0.0000000000000000e+00 0.0000000000000000e+00  0.0000000000000000e+00 0.0000000000000000e+00 0.0000000000000000e+00  0.0000000000000000e+00 0.0000000000000000e+00 0.0000000000000000e+00  0.0000000000000000e+00 0.0000000000000000e+00 0.0000000000000000e+00  0.0000000000000000e+00 1.0802259831109222e-15 0.0000000000000000e+00  0.0000000000000000e+00 -3.8240187837111979e-16 0.0000000000000000e+00  0.0000000000000000e+00 0.0000000000000000e+00 0.0000000000000000e+00  1.1250000000000009e+00 0.0000000000000000e+00 0.0000000000000000e+00  1.5000000000000013e+00 0.0000000000000000e+00 0.0000000000000000e+00  1.1250000000000004e+00 -6.3316646587613972e-16 0.0000000000000000e+00  0.0000000000000000e+00 0.0000000000000000e+00 0.0000000000000000e+00  4.1049586733844269e-15 0.0000000000000000e+00 0.0000000000000000e+00  0.0000000000000000e+00 0.0000000000000000e+00 0.0000000000000000e+00  0.0000000000000000e+00 0.0000000000000000e+00 0.0000000000000000e+00  0.0000000000000000e+00 0.0000000000000000e+00 0.0000000000000000e+00  0.0000000000000000e+00 3.6698706755430717e-16 0.0000000000000000e+00  0.0000000000000000e+00 0.0000000000000000e+00 0.0000000000000000e+00  0.0000000000000000e+00 0.0000000000000000e+00 0.0000000000000000e+00  1.2548583117533638e+00 -3.2705958195212764e-01 0.0000000000000000e+00  1.4202797828294622e+00 4.9580274777292529e-05 0.0000000000000000e+00  1.4473151304915126e+00 5.3642827587771620e-06 0.0000000000000000e+00  1.4599981092687095e+00 7.7462504433039580e-05 0.0000000000000000e+00  1.4889375256351516e+00 1.9537054278032574e-06 0.0000000000000000e+00  1.4928172592708822e+00 9.8786099508672704e-05 0.0000000000000000e+00  1.4998220106605085e+00 3.5532177214787230e-08 0.0000000000000000e+00  1.5000919019322920e+00 -8.0702150157445235e-05 0.0000000000000000e+00  1.4999960166067383e+00 -3.0010126357197681e-07 0.0000000000000000e+00  1.4999141190131755e+00 -1.1634332551347724e-03 0.0000000000000000e+00  1.4999999142682110e+00 -1.7369903693273304e-07 0.0000000000000000e+00  1.4591135842330483e+00 -8.1652421528778871e-03 0.0000000000000000e+00  1.4923530657041637e+00 -4.9405530644174322e-08 0.0000000000000000e+00  1.4889776195684610e+00 -1.1675065387681896e-08 0.0000000000000000e+00  1.4953954493976032e+00 7.6512977117287804e-10 0.0000000000000000e+00  1.4286138206621968e+00 -4.2937523343789835e-01 0.0000000000000000e+00  1.7555748749620466e+00 -2.7562311135113848e-01 0.0000000000000000e+00  1.4163696358127151e+00 5.9147294856033550e-10 0.0000000000000000e+00  9.7468252404282729e-01 3.7161711199626744e-10 0.0000000000000000e+00  1.2752957571257195e+00 5.6417510215698063e-01 0.0000000000000000e+00  1.5556514605079117e+00 -2.9602899648454639e-01 0.0000000000000000e+00  1.0826416597951516e+00 2.9463278414703775e-01 0.0000000000000000e+00  8.2733095411585611e-01 -4.1564568866844842e-01 0.0000000000000000e+00  1.2183814568800335e+00 -2.3620640327659728e-02 0.0000000000000000e+00  1.1316089997897329e+00 -6.1016859215884722e-01 0.0000000000000000e+00  3.4030432168528268e-01 2.2116336837395825e-01 0.0000000000000000e+00  9.3398474643517948e-01 -1.3810407827840451e-08 0.0000000000000000e+00  1.1610548733553556e+00 -5.5310153442156748e-09 0.0000000000000000e+00  1.0771906649723768e+00 -5.6424316493400746e-08 0.0000000000000000e+00  1.1629081284711595e+00 -2.1404334634910708e-03 0.0000000000000000e+00  1.1175883381031995e+00 -1.4154254494554378e-07 0.0000000000000000e+00  1.1346699237738467e+00 -7.6973320878410549e-05 0.0000000000000000e+00  1.0696131975044501e+00 -1.4669235881016926e-07 0.0000000000000000e+00  1.1871705196165829e+00 9.8404289574825898e-05 0.0000000000000000e+00  1.1964831588649929e+00 4.2483707087184956e-06 0.0000000000000000e+00  1.3814888269475460e+00 4.1357719712698798e-05 0.0000000000000000e+00  9.4340110299057767e-01 4.0779660972195288e-05 0.0000000000000000e+00  1.3186291184634924e+00 8.2334208962888884e-07 0.0000000000000000e+00  1.2101792219860237e+00 5.5265566213086558e-10 0.0000000000000000e+00  1.2389894990119181e+00 -2.8646929071202674e-09 0.0000000000000000e+00  1.1419408024409958e+00 -1.0990117207195226e-08 0.0000000000000000e+00  1.0218142136076611e+00 1.0947446644415527e-07 0.0000000000000000e+00  1.1453787199238719e+00 -4.2356179379804637e-08 0.0000000000000000e+00  1.0725890725210572e+00 4.6807955822668349e-05 0.0000000000000000e+00  1.1280885838598915e+00 -1.1212681272501993e-07 0.0000000000000000e+00  1.1638709506259410e+00 -6.4559764841026529e-04 0.0000000000000000e+00  1.1151380932743613e+00 -1.8232415645119031e-07 0.0000000000000000e+00  1.1377649065450222e+00 -4.6265286418924781e-04 0.0000000000000000e+00  1.1237255245338829e+00 -3.4295298828497140e-05 0.0000000000000000e+00  1.1486018353124867e+00 1.7232142562951735e-10 0.0000000000000000e+00  1.3678453013726937e+00 -1.0944600567496281e-01 0.0000000000000000e+00  6.0235978758041286e-01 5.4939239227502890e-01 0.0000000000000000e+00  1.0693518470451837e+00 9.0948012868632294e-06 0.0000000000000000e+00  1.0377625195422480e+00 -1.1489336344824380e-01 0.0000000000000000e+00  1.4973404225397182e+00 -6.0982716873093723e-03 0.0000000000000000e+00  1.3948795592435512e+00 5.6398008279632717e-10 0.0000000000000000e+00  1.4866219058182624e+00 -1.2271861996027887e-09 0.0000000000000000e+00  6.3106116144187940e-01 -1.0406326804866166e-01 0.0000000000000000e+00  1.5427035064482340e+00 3.3004862472329782e-01 0.0000000000000000e+00  3.1529663537635577e-01 -2.9273893501878800e-01 0.0000000000000000e+00  1.2047818355704989e+00 7.8269216891389035e-02 0.0000000000000000e+00  9.3642685273266990e-01 2.5988253694831228e-05 0.0000000000000000e+00  1.4378957666164924e+00 9.6950521021755022e-05 0.0000000000000000e+00  9.1016797004270689e-01 1.2640067202702271e-06 0.0000000000000000e+00  8.4145838125113792e-01 1.5620248701203836e-05 0.0000000000000000e+00  8.2402955358059571e-01 1.9835436949186010e-10 0.0000000000000000e+00  1.1912638912044813e+00 1.0494619263131756e-02 0.0000000000000000e+00  7.6059923627693771e-01 7.9022898490253478e-08 0.0000000000000000e+00  1.7048701764415919e+00 -1.9347718967744798e-01 0.0000000000000000e+00  1.8948607044992829e+00 -1.1253415206772038e-02 0.0000000000000000e+00  1.4927321689325934e+00 2.1543134715632994e-05 0.0000000000000000e+00  9.3778986122884023e-01 -9.1734994221623248e-11 0.0000000000000000e+00  1.0145057174227827e+00 1.3235416862014630e-05 0.0000000000000000e+00  1.1810010260515567e+00 2.5564273454496517e-01 0.0000000000000000e+00  1.0041297867175563e+00 5.5233915821798796e-01 0.0000000000000000e+00  1.1461118225264280e+00 5.4715966902720736e-01 0.0000000000000000e+00  1.7652293937974588e+00 3.6555122489001911e-02 0.0000000000000000e+00  1.0984371840079352e+00 -5.7239279017076750e-01 0.0000000000000000e+00  1.7767931448515302e+00 4.6638816201687155e-01 0.0000000000000000e+00  1.1099606461243221e+00 1.0995124568447427e-01 0.0000000000000000e+00  1.2391149775074890e+00 -4.2139500633793336e-01 0.0000000000000000e+00  1.3645780466755293e+00 2.3086875393139621e-02 0.0000000000000000e+00  7.3385657823979533e-01 1.6881934851158312e-02 0.0000000000000000e+00  7.7348803404992550e-01 1.9754025348324295e-10 0.0000000000000000e+00  1.2967966769067274e+00 4.1943663762157096e-10 0.0000000000000000e+00  1.4790924088863331e+00 5.3104825925659980e-10 0.0000000000000000e+00  1.4062499997448648e+00 4.4309352727648366e-10 0.0000000000000000e+00  5.4983050945767786e-01 1.1487839166830164e-10 0.0000000000000000e+00  5.4983050972986958e-01 1.3596554566689752e-10 0.0000000000000000e+00  0.0000000000000000e+00 0.0000000000000000e+00 0.0000000000000000e+00  1.1563784542956710e+00 -4.9544261381770552e-02 0.0000000000000000e+00  9.3247933989390108e-01 -1.0773585813383368e-01 0.0000000000000000e+00  0.0000000000000000e+00 6.0031418905289963e-16 0.0000000000000000e+00  7.4037407718668158e-01 1.1424559780341104e-01 0.0000000000000000e+00  5.2792727081661484e-01 5.4625952742791417e-02 0.0000000000000000e+00  0.0000000000000000e+00 -7.5392117637685496e-16 0.0000000000000000e+00  1.0639860960133902e+00 2.3037427932217683e-01 0.0000000000000000e+00  6.5625000000000000e-01 0.0000000000000000e+00 0.0000000000000000e+00  1.6007724241997325e+00 -4.1482178456864421e-01 0.0000000000000000e+00  1.0905907646546846e+00 -1.0841821664017347e-01 0.0000000000000000e+00  1.1409061977225605e+00 -1.7078644346143615e-01 0.0000000000000000e+00  1.3080203299526134e+00 4.9474931016848689e-01 0.0000000000000000e+00  1.2801185517253777e+00 3.5770540437932208e-01 0.0000000000000000e+00  1.2508468714412277e+00 -5.3247242633752578e-01 0.0000000000000000e+00  1.1057073475865862e+00 -3.9298718454475806e-01 0.0000000000000000e+00  1.3245278893095980e+00 -4.1818825377319752e-01 0.0000000000000000e+00  1.6772957187614355e+00 -4.9625241497708561e-01 0.0000000000000000e+00  1.4145520891441856e+00 -5.7586780222527290e-01 0.0000000000000000e+00  1.3287947176634494e+00 6.3205604182815386e-10 0.0000000000000000e+00  1.4446590342060242e+00 7.2365359769632576e-10 0.0000000000000000e+00  1.4877530020797995e+00 7.6708812022037837e-10 0.0000000000000000e+00  1.0659981413512447e+00 4.3230734409093150e-10 0.0000000000000000e+00  6.7414314272936582e-01 1.5459300220905557e-10 0.0000000000000000e+00  1.3908869454981561e+00 5.2201153628740008e-10 0.0000000000000000e+00  1.3429285860603559e+00 6.6898460442847666e-10 0.0000000000000000e+00  1.3536413080406788e+00 -6.1433321527522594e-02 0.0000000000000000e+00  1.4320687344786136e+00 -3.9337092769430690e-02 0.0000000000000000e+00  1.4360158721283141e+00 -3.0532709077943650e-02 0.0000000000000000e+00  1.4737198898876698e+00 5.2355364486095954e-10 0.0000000000000000e+00  1.2806973291697017e+00 4.0718599720321517e-10 0.0000000000000000e+00  1.4062500002555327e+00 4.4322037042095267e-10 0.0000000000000000e+00  1.4609486760404704e+00 -2.5245548937172004e-09 0.0000000000000000e+00  1.4999715047447952e+00 -4.8132028519336769e-09 0.0000000000000000e+00  1.4051731435271508e+00 -6.5878467600157419e-09 0.0000000000000000e+00  1.3782500699013160e+00 -3.5082891003640755e-09 0.0000000000000000e+00  1.4430694640164194e+00 -1.0218922065485393e-08 0.0000000000000000e+00  1.4160944711328318e+00 -2.1128925009687894e-03 0.0000000000000000e+00  1.4997525649229524e+00 -2.8392041947219488e-03 0.0000000000000000e+00  1.4110234394384691e+00 -1.5837273893518316e-03 0.0000000000000000e+00  1.2402409343983924e+00 -2.4630506439859609e-01 0.0000000000000000e+00  1.2786845634827049e+00 -2.3900093194279132e-01 0.0000000000000000e+00  4.0808211351171259e-01 3.6503574599894950e-01 0.0000000000000000e+00  3.1689534493770155e-01 3.7877429176297983e-01 0.0000000000000000e+00  0.0000000000000000e+00 0.0000000000000000e+00 0.0000000000000000e+00  1.7793605140051427e-01 2.3151351182531418e-01 0.0000000000000000e+00  1.1256427722171419e-01 9.3630177967821832e-02 0.0000000000000000e+00  -3.7394818854796145e-16 5.1981812968924351e-16 0.0000000000000000e+00  9.0808265491442341e-01 -5.6504862320124072e-01 0.0000000000000000e+00  1.4259431735700339e+00 5.8473527169205249e-05 0.0000000000000000e+00  1.4990427707530929e+00 5.2262442653938076e-05 0.0000000000000000e+00  1.4983066481252849e+00 6.9257663372863956e-05 0.0000000000000000e+00  1.3923825335300888e+00 3.3478018503593534e-06 0.0000000000000000e+00  1.4741770061551538e+00 6.3093035958043386e-06 0.0000000000000000e+00  1.4961340506142846e+00 3.5329031629705091e-06 0.0000000000000000e+00  1.1140887889550382e+00 1.1412691772936090e-06 0.0000000000000000e+00  1.3413219175231161e+00 7.8044892302374338e-07 0.0000000000000000e+00  6.1779661511204975e-01 1.5884375523519099e-05 0.0000000000000000e+00  6.1782370470440540e-01 1.2163111029199869e-05 0.0000000000000000e+00  0.0000000000000000e+00 0.0000000000000000e+00 0.0000000000000000e+00  1.3636141102312280e+00 7.5928979634220676e-05 0.0000000000000000e+00  1.3177738185886199e+00 7.0947638057621668e-05 0.0000000000000000e+00  1.4797174301388014e+00 9.7485632432210299e-05 0.0000000000000000e+00  1.0985753674492975e+00 3.0194844698282833e-05 0.0000000000000000e+00  1.3781292516414505e+00 3.8377116876909032e-05 0.0000000000000000e+00  6.5530419458407918e-01 -4.8008444198421576e-06 0.0000000000000000e+00  5.8199191033090103e-01 -5.0849169491667155e-08 0.0000000000000000e+00  5.8199186775145861e-01 3.1334808559696770e-09 0.0000000000000000e+00  0.0000000000000000e+00 0.0000000000000000e+00 0.0000000000000000e+00  1.3757962742659346e+00 1.4978938290419386e-07 0.0000000000000000e+00  1.4964882567741429e+00 6.7436955947868718e-07 0.0000000000000000e+00  1.0697412073925312e+00 -1.3131048126184210e-07 0.0000000000000000e+00  1.3996017305757340e+00 -2.2076841467780074e-07 0.0000000000000000e+00  6.4888551775751324e-01 -6.7645086456222522e-08 0.0000000000000000e+00  6.5525171460875042e-01 -5.7015289041698178e-05 0.0000000000000000e+00  0.0000000000000000e+00 -7.7056132053882385e-16 0.0000000000000000e+00  1.4054543706284424e+00 -7.3210333988027581e-05 0.0000000000000000e+00  1.4981744757198394e+00 5.3997743546565591e-05 0.0000000000000000e+00  1.1308420230575202e+00 -1.8971164295837422e-04 0.0000000000000000e+00  1.4090194667462506e+00 -3.4334612749625337e-04 0.0000000000000000e+00  6.6585550040599939e-01 -1.5027292299855900e-04 0.0000000000000000e+00  6.4888562582663145e-01 -5.4261381685662409e-08 0.0000000000000000e+00  -5.2526028933719880e-16 -3.2436911734504203e-16 0.0000000000000000e+00  1.4031644484717398e+00 -2.7075662654482013e-07 0.0000000000000000e+00  1.4999411938456304e+00 -2.6337010650734634e-07 0.0000000000000000e+00  1.1216410522683840e+00 -1.5418751196050622e-07 0.0000000000000000e+00  1.4064125898273205e+00 -2.2865050158704824e-07 0.0000000000000000e+00  6.5856961852430607e-01 -3.9023190883275428e-08 0.0000000000000000e+00  1.3930664991830322e+00 2.9160549836900229e-10 0.0000000000000000e+00  1.4994286257217451e+00 2.9604157632248507e-10 0.0000000000000000e+00  6.8374664674259067e-01 -2.2153358807589285e-09 0.0000000000000000e+00  6.8374664409945451e-01 -7.9951283098695433e-10 0.0000000000000000e+00  0.0000000000000000e+00 0.0000000000000000e+00 0.0000000000000000e+00  1.3878966715243135e+00 -2.0491506359613877e-08 0.0000000000000000e+00  1.4999230804276915e+00 -2.5854392289261805e-08 0.0000000000000000e+00  5.2278400200848707e-01 -5.2808554168822084e-09 0.0000000000000000e+00  5.2278399273110798e-01 -2.6227028975728111e-09 0.0000000000000000e+00  0.0000000000000000e+00 0.0000000000000000e+00 0.0000000000000000e+00  1.0547575566888658e+00 -9.4245632881782025e-09 0.0000000000000000e+00  1.3236896161567311e+00 -3.3885281691256715e-08 0.0000000000000000e+00  6.2110991339462274e-01 -2.2566205700407389e-08 0.0000000000000000e+00  6.2110987993091760e-01 -1.3445653986436866e-08 0.0000000000000000e+00  0.0000000000000000e+00 0.0000000000000000e+00 0.0000000000000000e+00  1.0081938985280701e+00 -2.9424538712133480e-08 0.0000000000000000e+00  1.3639553391919177e+00 -6.2923865040915981e-08 0.0000000000000000e+00  1.3943928710338860e+00 -1.2238402884765977e-07 0.0000000000000000e+00  1.4981010497597080e+00 -9.9018296910278894e-08 0.0000000000000000e+00  6.8550688098386892e-01 -1.1227272094245610e-03 0.0000000000000000e+00  6.8430906265568270e-01 -3.1693588525482259e-04 0.0000000000000000e+00  0.0000000000000000e+00 0.0000000000000000e+00 0.0000000000000000e+00  1.4141376132973011e+00 -5.1869279471951565e-03 0.0000000000000000e+00  1.4206097341439601e+00 -1.8296843192756615e-03 0.0000000000000000e+00  6.5070943755267230e-01 -5.5337269129848659e-08 0.0000000000000000e+00  6.5070935665121032e-01 -3.9308050079712894e-08 0.0000000000000000e+00  0.0000000000000000e+00 0.0000000000000000e+00 0.0000000000000000e+00  1.0976429884735392e+00 -9.4057307354916898e-08 0.0000000000000000e+00  1.4044876345979442e+00 -1.8678864333276655e-07 0.0000000000000000e+00  1.4050131870899154e+00 -2.4897664444422765e-07 0.0000000000000000e+00  1.4999986904239508e+00 -2.4571165600730573e-07 0.0000000000000000e+00  6.6338089850823045e-01 -2.8526015729582134e-05 0.0000000000000000e+00  6.6335215167821837e-01 3.3920502607971261e-05 0.0000000000000000e+00  0.0000000000000000e+00 0.0000000000000000e+00 0.0000000000000000e+00  1.1485875849940701e+00 -5.9342656016447978e-04 0.0000000000000000e+00  1.4137351984601354e+00 -5.6677557063944145e-04 0.0000000000000000e+00  1.4092851303229006e+00 -1.0670345312170087e-04 0.0000000000000000e+00  1.5000804199486106e+00 -4.3773198452361380e-04 0.0000000000000000e+00  6.1566336514660736e-01 -5.6248426967012443e-08 0.0000000000000000e+00  6.1566326272846084e-01 -6.3039093223019758e-08 0.0000000000000000e+00  0.0000000000000000e+00 0.0000000000000000e+00 0.0000000000000000e+00  1.0939550469430959e+00 -1.7497985280928632e-07 0.0000000000000000e+00  1.3930569834204736e+00 -2.63