<?xml version="1.0"?>
<VTKFile type="UnstructuredGrid"  version="0.1"  >
<UnstructuredGrid>
<Piece  NumberOfPoints="525" NumberOfCells="924">
<Points>
<DataArray  type="Float64"  NumberOfComponents="3"  format="ascii">0 0 0  2.2 0 0  2.2 0.41 0  0 0.41 0  0.15 0.2 0  0.25 0.2 0  0.2 0.15 0  0.2 0.25 0  0.104762 0 0  0.209524 0 0  0.314286 0 0  0.419048 0 0  0.52381 0 0  0.628571 0 0  0.733333 0 0  0.838095 0 0  0.9428569999999999 0 0  1.04762 0 0  1.15238 0 0  1.25714 0 0  1.3619 0 0  1.46667 0 0  1.57143 0 0  1.67619 0 0  1.78095 0 0  1.88571 0 0  1.99048 0 0  2.09524 0 0  2.2 0.1025 0  2.2 0.205 0  2.2 0.3075 0  2.1 0.41 0  2 0.41 0  1.9 0.41 0  1.8 0.41 0  1.7 0.41 0  1.6 0.41 0  1.5 0.41 0  1.4 0.41 0  1.3 0.41 0  1.2 0.41 0  1.1 0.41 0  1 0.41 0  0.9 0.41 0  0.8 0.41 0  0.7 0.41 0  0.6 0.41 0  0.5 0.41 0  0.4 0.41 0  0.3 0.41 0  0.2 0.41 0  0.1 0.41 0  0 0.3075 0  0 0.205 0  0 0.1025 0  0.1566987973585577 0.2250001169958213 0  0.1749998830041787 0.2433012026414423 0  0.2250001169958213 0.2433012026414423 0  0.2433012026414423 0.2250001169958213 0  0.2433012026414423 0.1749998830041787 0  0.2250001169958213 0.1566987973585577 0  0.1749998830041787 0.1566987973585577 0  0.1566987973585577 0.1749998830041787 0  0.352033 0.262216 0  1.04579 0.252253 0  1.24065 0.243419 0  0.985775 0.171509 0  1.30324 0.187395 0  0.890988 0.190768 0  1.39085 0.202767 0  0.801464 0.204685 0  1.49904 0.204666 0  0.704267 0.202289 0  1.60238 0.204951 0  0.487789 0.19191 0  1.72935 0.219637 0  1.83335 0.187427 0  2.03359 0.193642 0  0.314663 0.307348 0  0.249039 0.333583 0  2.12147 0.253405 0  2.06373 0.0836837 0  0.0734726 0.267055 0  0.143989 0.0677174 0  0.0613613 0.33781 0  0.299628 0.236829 0  0.527114 0.295386 0  0.262384 0.26549 0  0.275777 0.18341 0  1.74578 0.330928 0  1.84001 0.302448 0  1.64998 0.313838 0  0.648421 0.302367 0  1.54544 0.308508 0  0.755686 0.306156 0  1.42668 0.314809 0  0.870524 0.298596 0  1.22553 0.112785 0  1.05603 0.147372 0  0.969346 0.329867 0  1.32527 0.276284 0  2.02914 0.29511 0  1.88168 0.119486 0  1.79545 0.104842 0  1.35688 0.0892539 0  1.69041 0.105324 0  0.914199 0.09555660000000001 0  1.58234 0.102923 0  0.61843 0.10815 0  1.47999 0.101161 0  0.725217 0.104273 0  0.821727 0.102306 0  1.96725 0.105778 0  0.418624 0.241547 0  0.135226 0.239087 0  1.14921 0.314841 0  0.404508 0.333259 0  0.590155 0.206269 0  2.12554 0.150731 0  1.93166 0.22436 0  0.104689 0.190046 0  0.267856 0.07447529999999999 0  0.269368 0.221581 0  0.434446 0.114927 0  1.0089 0.07933809999999999 0  0.953023 0.246698 0  1.25853 0.33355 0  1.05268 0.340828 0  2.1369 0.067383 0  0.522398 0.112537 0  1.3421 0.348929 0  0.215186 0.289473 0  0.203197 0.335348 0  1.13984 0.190728 0  1.93813 0.330504 0  1.10505 0.0883705 0  0.341988 0.0824728 0  0.253113 0.138035 0  0.291932 0.131907 0  0.203713 0.102439 0  0.150375 0.134668 0  0.151494 0.309119 0  0.354384 0.17896 0  0.06853670000000001 0.100776 0  0.424128 0.180088 0  0.474925 0.0568661 0  2.10843 0.347669 0  2.160735 0.2804525 0  2.160735 0.2292025 0  2.2 0.25625 0  2.079485 0.04184185 0  2.027105 0.04184185 0  2.04286 0 0  0.1767565 0.0338587 0  0.1243755 0.0338587 0  0.157143 0 0  0.08068065000000001 0.373905 0  0.03068065 0.373905 0  0.05 0.41 0  0.03068065 0.322655 0  0 0.35875 0  0.281851 0.3204655 0  0.2745195 0.3717915 0  0.3073315 0.358674 0  0.06741695 0.3024325 0  0.0367363 0.2872775 0  0.3071455 0.2720885 0  0.3258305 0.2495225 0  0.333348 0.284782 0  0.2557115 0.2995365 0  0.2885235 0.286419 0  2.075305 0.2742575 0  2.031365 0.244376 0  2.07753 0.2235235 0  2.01549 0.09473085000000001 0  1.978865 0.052889 0  2.00042 0.14971 0  2.04866 0.13866285 0  0.472869 0.2684665 0  0.4532065 0.2167285 0  0.5074514999999999 0.243648 0  2.16277 0.1778655 0  2.16277 0.1266155 0  2.2 0.15375 0  1.90667 0.171923 0  1.882505 0.2058935 0  1.857515 0.1534565 0  1.885835 0.263404 0  1.83668 0.2449375 0  0.6042925 0.1572095 0  0.647211 0.204279 0  0.6613485 0.1552195 0  0.3595855 0.3203035 0  0.3782705 0.2977375 0  0.155113 0.241194 0  0.1459625 0.2320435 0  0.1646446609406726 0.2353553390593274 0  0.259539 0.179205 0  0.2628885 0.191705 0  0.2482962819455563 0.1870590127797247 0  0.281006 0.2511595 0  1.0209025 0.1594405 0  1.05091 0.1998125 0  1.0157825 0.211881 0  1.264385 0.15009 0  1.23309 0.178102 0  1.271945 0.215407 0  1.291205 0.10101945 0  1.33006 0.13832445 0  0.928528 0.0477783 0  0.876147 0.0477783 0  0.890476 0 0  0.9025935 0.1431623 0  0.9499869999999999 0.1335328 0  0.9383815 0.1811385 0  0.867963 0.0989313 0  0.8563575 0.146537 0  0.8299110000000001 0.051153 0  1.411775 0.04462695 0  1.35939 0.04462695 0  1.414285 0 0  1.373865 0.14601045 0  1.347045 0.195081 0  1.418435 0.09520745 0  1.43542 0.151964 0  1.47333 0.0505805 0  0.7775300000000001 0.051153 0  0.785714 0 0  0.8115954999999999 0.1534955 0  0.8462259999999999 0.1977265 0  0.7734719999999999 0.1032895 0  0.7633405 0.154479 0  0.729275 0.0521365 0  1.52571 0.0505805 0  1.51905 0 0  1.489515 0.1529135 0  1.444945 0.2037165 0  1.531165 0.102042 0  1.54069 0.1537945 0  1.576885 0.0514615 0  1.9804 0.259735 0  1.982625 0.209001 0  1.820005 0.356224 0  1.870005 0.356224 0  1.85 0.41 0  1.78468 0.2610425 0  1.78135 0.203532 0  1.72289 0.370464 0  1.77289 0.370464 0  1.75 0.41 0  1.792895 0.316688 0  1.737565 0.2752825 0  1.62499 0.361919 0  1.67499 0.361919 0  1.65 0.41 0  1.69788 0.322383 0  1.689665 0.2667375 0  1.62618 0.2593945 0  1.665865 0.212294 0  0.6242105 0.3561835 0  0.6742105 0.3561835 0  0.6499999999999999 0.41 0  0.6192880000000001 0.254318 0  0.6763440000000001 0.252328 0  1.52272 0.359254 0  1.57272 0.359254 0  1.55 0.41 0  1.59771 0.311173 0  1.57391 0.2567295 0  1.52224 0.256587 0  1.55071 0.2048085 0  0.727843 0.358078 0  0.7778430000000001 0.358078 0  0.75 0.41 0  0.7020535 0.3042615 0  0.7299765 0.2542225 0  0.778575 0.2554205 0  0.7528655 0.203487 0  1.41334 0.3624045 0  1.46334 0.3624045 0  1.45 0.41 0  1.48606 0.3116585 0  1.46286 0.2597375 0  1.408765 0.258788 0  0.8352619999999999 0.354298 0  0.885262 0.354298 0  0.8500000000000001 0.41 0  0.813105 0.302376 0  0.8359939999999999 0.2516405 0  0.880756 0.244682 0  0.9346730000000001 0.3699335 0  0.984673 0.3699335 0  0.95 0.41 0  0.9199349999999999 0.3142315 0  0.676894 0.0521365 0  0.680952 0 0  0.714742 0.153281 0  0.6718235 0.1062115 0  0.6235005 0.054075 0  1.629265 0.0514615 0  1.62381 0 0  1.59236 0.153937 0  1.636375 0.1041235 0  1.646395 0.1551375 0  1.6833 0.052662 0  1.73568 0.052662 0  1.72857 0 0  1.70988 0.1624805 0  1.74293 0.105083 0  1.7624 0.1622395 0  1.7882 0.052421 0  1.84058 0.052421 0  1.83333 0 0  1.8144 0.1461345 0  1.838565 0.112164 0  1.883695 0.059743 0  1.124605 0.3624205 0  1.174605 0.3624205 0  1.15 0.41 0  1.314255 0.2318395 0  1.28296 0.2598515 0  1.35806 0.2395255 0  1.375975 0.2955465 0  1.92648 0.052889 0  1.938095 0 0  1.924465 0.112632 0  1.949455 0.165069 0  0.352254 0.3716295 0  0.402254 0.3716295 0  0.35 0.41 0  0.513557 0.352693 0  0.563557 0.352693 0  0.55 0.41 0  0.5877675 0.2988765 0  0.5586344999999999 0.2508275 0  0.538972 0.1990895 0  0.452254 0.3716295 0  0.45 0.41 0  0.465811 0.3143225 0  0.411566 0.287403 0  0.3853285 0.2518815 0  0.1199575 0.2145665 0  0.0890808 0.2285505 0  0.1043493 0.253071 0  0.2245195 0.3717915 0  0.25 0.41 0  0.291071 0.03723765 0  0.23869 0.03723765 0  0.261905 0 0  0.265876 0.2435355 0  0.2563345 0.2232905 0  0.2528425 0.245245 0  0.284498 0.229205 0  1.032465 0.11335505 0  0.9973375 0.12542355 0  0.9615494999999999 0.08744735000000001 0  0.9220055 0.218733 0  0.9693989999999999 0.2091035 0  0.9611845 0.2882825 0  0.9117735 0.272647 0  1.229265 0.371775 0  1.279265 0.371775 0  1.25 0.41 0  1.02634 0.375414 0  1.07634 0.375414 0  1.05 0.41 0  1.011013 0.3353475 0  2.11607 0.0336915 0  2.16845 0.0336915 0  2.14762 0 0  2.16845 0.0849415 0  2.2 0.05125 0  2.100315 0.07553335 0  0.5562765000000001 0.159403 0  0.570414 0.1103435 0  0.5050935 0.1522235 0  1.32105 0.3794645 0  1.37105 0.3794645 0  1.35 0.41 0  1.333685 0.3126065 0  1.38439 0.331869 0  0.9994065 0.2494755 0  1.007568 0.29106 0  1.300315 0.3412395 0  1.2919 0.304917 0  2.13122 0.109057 0  2.094635 0.11720735 0  0.2725725 0.2024955 0  0.259684 0.2107905 0  0.2482962819455563 0.2129409872202754 0  0.2877025 0.2101195 0  2.123505 0.202068 0  2.079565 0.1721865 0  1.02826 0.03966905 0  0.9758784999999999 0.03966905 0  0.9952384999999999 0 0  1.049235 0.2965405 0  1.100945 0.3278345 0  1.0975 0.283547 0  0.5711200000000001 0.054075 0  0.5761905 0 0  0.523104 0.0562685 0  1.24959 0.2884845 0  1.20387 0.3241955 0  1.19493 0.27913 0  0.238785 0.2774815 0  0.2321125 0.311528 0  0.226118 0.3344655 0  0.2015985 0.3726739999999999 0  1.144525 0.2527845 0  1.190245 0.2170735 0  1.092815 0.2214905 0  0.2091915 0.3124105 0  0.220093 0.266387 0  0.243692 0.2543955 0  0.2353553390593274 0.2353553390593274 0  0.478422 0.113732 0  0.4611175 0.1534185 0  1.919065 0.370252 0  1.969065 0.370252 0  1.95 0.41 0  1.983635 0.312807 0  2.01457 0.352555 0  1.88907 0.316476 0  1.934895 0.277432 0  1.182685 0.1517565 0  1.097935 0.16905 0  1.128715 0.04418525 0  1.076335 0.04418525 0  1.1 0 0  1.056975 0.08385429999999999 0  1.08054 0.11787125 0  1.122445 0.13954925 0  1.16529 0.10057775 0  0.304922 0.07847404999999999 0  0.328137 0.0412364 0  0.380518 0.0412364 0  0.366667 0 0  0.388217 0.09869990000000001 0  0.426747 0.0574635 0  0.31696 0.1071899 0  0.279894 0.10319115 0  0.2725225 0.134971 0  0.2604845 0.10625515 0  0.228413 0.120237 0  0.2143565 0.129569 0  0.2390565 0.147367 0  1.30701 0.04462695 0  1.30952 0 0  1.241335 0.0563925 0  0.2357845 0.08845715 0  1.188955 0.0563925 0  1.20476 0 0  0.2066185 0.0512195 0  0.173851 0.08507819999999999 0  0.0367363 0.2360275 0  0 0.25625 0  0.264445 0.1607225 0  0.248207 0.1565175 0  0.2353553390593274 0.1646446609406726 0  0.2838545 0.1576585 0  0.130694 0.182523 0  0.1273445 0.195023 0  0.1517037180544437 0.1870590127797247 0  0.127532 0.162357 0  0.153537 0.154834 0  0.0523445 0.197523 0  0
[...]
<PointData  Vectors="u"> 
<DataArray  type="Float64"  Name="u"  NumberOfComponents="3" format="ascii">3.6811138948301950e-15 -5.2016130595319128e-15 0.0000000000000000e+00  0.0000000000000000e+00 0.0000000000000000e+00 0.0000000000000000e+00  0.0000000000000000e+00 0.0000000000000000e+00 0.0000000000000000e+00  0.0000000000000000e+00 0.0000000000000000e+00 0.0000000000000000e+00  0.0000000000000000e+00 0.0000000000000000e+00 0.0000000000000000e+00  0.0000000000000000e+00 0.0000000000000000e+00 0.0000000000000000e+00  0.0000000000000000e+00 0.0000000000000000e+00 0.0000000000000000e+00  0.0000000000000000e+00 5.0539529674530066e-16 0.0000000000000000e+00  0.0000000000000000e+00 0.0000000000000000e+00 0.0000000000000000e+00  0.0000000000000000e+00 0.0000000000000000e+00 0.0000000000000000e+00  0.0000000000000000e+00 0.0000000000000000e+00 0.0000000000000000e+00  0.0000000000000000e+00 -4.0250994501511508e-16 0.0000000000000000e+00  0.0000000000000000e+00 3.3599752912246796e-16 0.0000000000000000e+00  0.0000000000000000e+00 0.0000000000000000e+00 0.0000000000000000e+00  0.0000000000000000e+00 8.2551765708529058e-16 0.0000000000000000e+00  0.0000000000000000e+00 -5.8328685370546795e-16 0.0000000000000000e+00  0.0000000000000000e+00 -3.3725523445593851e-16 0.0000000000000000e+00  0.0000000000000000e+00 0.0000000000000000e+00 0.0000000000000000e+00  0.0000000000000000e+00 7.7209735998843130e-16 0.0000000000000000e+00  0.0000000000000000e+00 0.0000000000000000e+00 0.0000000000000000e+00  6.9706348708796877e-16 0.0000000000000000e+00 0.0000000000000000e+00  0.0000000000000000e+00 0.0000000000000000e+00 0.0000000000000000e+00  -5.1786994407299938e-16 -4.2244486535654741e-16 0.0000000000000000e+00  0.0000000000000000e+00 0.0000000000000000e+00 0.0000000000000000e+00  0.0000000000000000e+00 3.5872929934760310e-16 0.0000000000000000e+00  0.0000000000000000e+00 0.0000000000000000e+00 0.0000000000000000e+00  0.0000000000000000e+00 0.0000000000000000e+00 0.0000000000000000e+00  0.0000000000000000e+00 -3.1963176209296085e-16 0.0000000000000000e+00  1.1250000003546452e+00 3.0651650214659248e-10 0.0000000000000000e+00  1.5000000000001539e+00 4.9789468427885568e-10 0.0000000000000000e+00  1.1249999996455795e+00 3.0607943503948418e-10 0.0000000000000000e+00  0.0000000000000000e+00 0.0000000000000000e+00 0.0000000000000000e+00  0.0000000000000000e+00 0.0000000000000000e+00 0.0000000000000000e+00  4.2140667139068381e-16 0.0000000000000000e+00 0.0000000000000000e+00  0.0000000000000000e+00 0.0000000000000000e+00 0.0000000000000000e+00  0.0000000000000000e+00 0.0000000000000000e+00 0.0000000000000000e+00  0.0000000000000000e+00 0.0000000000000000e+00 0.0000000000000000e+00  0.0000000000000000e+00 0.0000000000000000e+00 0.0000000000000000e+00  0.0000000000000000e+00 0.0000000000000000e+00 0.0000000000000000e+00  0.0000000000000000e+00 -5.0057717572851330e-16 0.0000000000000000e+00  0.0000000000000000e+00 0.0000000000000000e+00 0.0000000000000000e+00  0.0000000000000000e+00 0.0000000000000000e+00 0.0000000000000000e+00  0.0000000000000000e+00 3.4534656239904859e-16 0.0000000000000000e+00  0.0000000000000000e+00 5.2910034247883427e-16 0.0000000000000000e+00  0.0000000000000000e+00 7.1035005992439368e-16 0.0000000000000000e+00  0.0000000000000000e+00 9.3683583686359161e-16 0.0000000000000000e+00  0.0000000000000000e+00 0.0000000000000000e+00 0.0000000000000000e+00  0.0000000000000000e+00 0.0000000000000000e+00 0.0000000000000000e+00  3.6439898702595736e-16 0.0000000000000000e+00 0.0000000000000000e+00  0.0000000000000000e+00 0.0000000000000000e+00 0.0000000000000000e+00  0.0000000000000000e+00 0.0000000000000000e+00 0.0000000000000000e+00  0.0000000000000000e+00 0.0000000000000000e+00 0.0000000000000000e+00  1.1249999999999998e+00 0.0000000000000000e+00 0.0000000000000000e+00  1.5000000000000000e+00 0.0000000000000000e+00 0.0000000000000000e+00  1.1249999999999978e+00 -3.2802520124740929e-16 0.0000000000000000e+00  0.0000000000000000e+00 0.0000000000000000e+00 0.0000000000000000e+00  2.1218258169539441e-15 3.9784197031176095e-16 0.0000000000000000e+00  0.0000000000000000e+00 -3.5814595436624143e-16 0.0000000000000000e+00  0.0000000000000000e+00 0.0000000000000000e+00 0.0000000000000000e+00  0.0000000000000000e+00 0.0000000000000000e+00 0.0000000000000000e+00  -6.8982258724006911e-16 0.0000000000000000e+00 0.0000000000000000e+00  0.0000000000000000e+00 0.0000000000000000e+00 0.0000000000000000e+00  0.0000000000000000e+00 0.0000000000000000e+00 0.0000000000000000e+00  1.2548515868400125e+00 -3.2751834500316751e-01 0.0000000000000000e+00  1.4202798477327621e+00 4.9598796784276296e-05 0.0000000000000000e+00  1.4473151529310342e+00 5.3107684493906849e-06 0.0000000000000000e+00  1.4599981199903540e+00 7.7779954794107535e-05 0.0000000000000000e+00  1.4889375199553290e+00 1.9194526397231741e-06 0.0000000000000000e+00  1.4928174532060716e+00 1.0068910673975667e-04 0.0000000000000000e+00  1.4998220104126132e+00 2.1585022000991629e-08 0.0000000000000000e+00  1.5000919677032916e+00 -7.4631874994203433e-05 0.0000000000000000e+00  1.4999960165993511e+00 -3.0319444796473711e-07 0.0000000000000000e+00  1.4999141629227990e+00 -1.1477293894649294e-03 0.0000000000000000e+00  1.4999999142688272e+00 -1.7393014360223509e-07 0.0000000000000000e+00  1.4590674915342139e+00 -8.1487784655628007e-03 0.0000000000000000e+00  1.4923530656567672e+00 -4.9171967694660400e-08 0.0000000000000000e+00  1.4889776195929576e+00 -1.1538671547689541e-08 0.0000000000000000e+00  1.4953954493986534e+00 7.8112940037847286e-10 0.0000000000000000e+00  1.4290363189786233e+00 -4.2963562449444598e-01 0.0000000000000000e+00  1.7561093345010412e+00 -2.7552414112113521e-01 0.0000000000000000e+00  1.4163696358130464e+00 5.9559480905740735e-10 0.0000000000000000e+00  9.7468252404466504e-01 3.7527778436823768e-10 0.0000000000000000e+00  1.2754496707308349e+00 5.6433760877385619e-01 0.0000000000000000e+00  1.5549112610256752e+00 -2.9588495777889534e-01 0.0000000000000000e+00  1.0826289215343801e+00 2.9462002621315442e-01 0.0000000000000000e+00  8.2729585335930733e-01 -4.1629327413979322e-01 0.0000000000000000e+00  1.2183448592439172e+00 -2.3627881735208894e-02 0.0000000000000000e+00  1.1320771876474660e+00 -6.1041204015965600e-01 0.0000000000000000e+00  3.3979116711681256e-01 2.2024180402828680e-01 0.0000000000000000e+00  9.3398474621616290e-01 -1.3717565333963559e-08 0.0000000000000000e+00  1.1610548732634547e+00 -5.4541377969697385e-09 0.0000000000000000e+00  1.0771906646039455e+00 -5.6323554722970346e-08 0.0000000000000000e+00  1.1628902112249568e+00 -2.1288482669745857e-03 0.0000000000000000e+00  1.1175883380851968e+00 -1.4210852197984629e-07 0.0000000000000000e+00  1.1346640396448269e+00 -7.1743636621455511e-05 0.0000000000000000e+00  1.0696132013439936e+00 -1.5073858571703778e-07 0.0000000000000000e+00  1.1871694711387031e+00 9.9900774106775780e-05 0.0000000000000000e+00  1.1964831099620221e+00 4.2080947089239201e-06 0.0000000000000000e+00  1.3814887466864270e+00 4.1346307676946231e-05 0.0000000000000000e+00  9.4340112545713717e-01 4.0924073358669748e-05 0.0000000000000000e+00  1.3186291334044218e+00 8.0205226305922514e-07 0.0000000000000000e+00  1.2101792219800342e+00 5.6283601930316842e-10 0.0000000000000000e+00  1.2389894990672801e+00 -2.8039930429292925e-09 0.0000000000000000e+00  1.1419408025844529e+00 -1.0886448113384513e-08 0.0000000000000000e+00  1.0218142024319770e+00 1.0081208993613660e-07 0.0000000000000000e+00  1.1453787202311534e+00 -4.2208251106058021e-08 0.0000000000000000e+00  1.0725894387356441e+00 4.7379118189081008e-05 0.0000000000000000e+00  1.1280885841315658e+00 -1.1231541468923820e-07 0.0000000000000000e+00  1.1638962300439442e+00 -6.2432185081212133e-04 0.0000000000000000e+00  1.1151380919885701e+00 -1.8434050991774695e-07 0.0000000000000000e+00  1.1377735369401711e+00 -4.5513650667056008e-04 0.0000000000000000e+00  1.1237278962816311e+00 -3.1849347284973944e-05 0.0000000000000000e+00  1.1486018353307748e+00 1.9254277043983569e-10 0.0000000000000000e+00  1.3677244927811865e+00 -1.0962391372839043e-01 0.0000000000000000e+00  6.0322710102495170e-01 5.5042553614884970e-01 0.0000000000000000e+00  1.0693519412562607e+00 9.0482043513504271e-06 0.0000000000000000e+00  1.0378521554303648e+00 -1.1501295107788280e-01 0.0000000000000000e+00  1.4973321977138292e+00 -6.0685432200215878e-03 0.0000000000000000e+00  1.3948795592430610e+00 5.6774470680690224e-10 0.0000000000000000e+00  1.4866219058093926e+00 -1.1724865178680567e-09 0.0000000000000000e+00  6.3132588463004791e-01 -1.0313077650893311e-01 0.0000000000000000e+00  1.5424514559232123e+00 3.2964027976442778e-01 0.0000000000000000e+00  3.1530066302989840e-01 -2.9315184904519248e-01 0.0000000000000000e+00  1.2048273393255016e+00 7.8332208847479753e-02 0.0000000000000000e+00  9.3642673155013811e-01 2.6020914745303821e-05 0.0000000000000000e+00  1.4378956830651448e+00 9.7577297470031563e-05 0.0000000000000000e+00  9.1016800519558705e-01 1.2461281629169554e-06 0.0000000000000000e+00  8.4145852159994594e-01 1.5605120924798001e-05 0.0000000000000000e+00  8.2402955357876229e-01 1.9931285982824950e-10 0.0000000000000000e+00  1.1913112640355414e+00 1.0540473347101478e-02 0.0000000000000000e+00  7.6059924761871855e-01 7.3618653938448453e-08 0.0000000000000000e+00  1.7058637102999863e+00 -1.9321472102170700e-01 0.0000000000000000e+00  1.8952487330055612e+00 -1.1071326493456190e-02 0.0000000000000000e+00  1.4927321510306690e+00 2.1458805565436125e-05 0.0000000000000000e+00  9.3778986120245089e-01 -7.3557960019898128e-11 0.0000000000000000e+00  1.0145055950694379e+00 1.3192831423177210e-05 0.0000000000000000e+00  1.1811008204870890e+00 2.5558566837689145e-01 0.0000000000000000e+00  1.0033776668422423e+00 5.5138505938336646e-01 0.0000000000000000e+00  1.1456411918720486e+00 5.4646106575653286e-01 0.0000000000000000e+00  1.7644142553709339e+00 3.6179457291650695e-02 0.0000000000000000e+00  1.0982240665704917e+00 -5.7211873647095401e-01 0.0000000000000000e+00  1.7771320409370350e+00 4.6665257574486319e-01 0.0000000000000000e+00  1.1095780114464686e+00 1.0963189919545768e-01 0.0000000000000000e+00  1.2389256767585464e+00 -4.2090751067126753e-01 0.0000000000000000e+00  1.3644469532242340e+00 2.3047176531103761e-02 0.0000000000000000e+00  7.3394928094600576e-01 1.6913322323882245e-02 0.0000000000000000e+00  7.7348803405092781e-01 1.9864255775203670e-10 0.0000000000000000e+00  1.2967966769084103e+00 4.2168862432019546e-10 0.0000000000000000e+00  1.4790924088868895e+00 5.3408698806384977e-10 0.0000000000000000e+00  1.4062499997465672e+00 4.4543969053255907e-10 0.0000000000000000e+00  5.4983050945748357e-01 1.1563967117730267e-10 0.0000000000000000e+00  5.4983050973260250e-01 1.3769555203746959e-10 0.0000000000000000e+00  0.0000000000000000e+00 4.0362451437840208e-16 0.0000000000000000e+00  1.1558466863991650e+00 -4.9580658627288741e-02 0.0000000000000000e+00  9.3201441089035786e-01 -1.0766123772013869e-01 0.0000000000000000e+00  0.0000000000000000e+00 -7.1437086257616970e-16 0.0000000000000000e+00  7.4034756273721680e-01 1.1424396686478731e-01 0.0000000000000000e+00  5.2791658363416849e-01 5.4613565710504949e-02 0.0000000000000000e+00  0.0000000000000000e+00 -1.0839681396979210e-15 0.0000000000000000e+00  1.0639812117369889e+00 2.3034179882956685e-01 0.0000000000000000e+00  6.5624999999999989e-01 0.0000000000000000e+00 0.0000000000000000e+00  1.6013449103915602e+00 -4.1488892293512164e-01 0.0000000000000000e+00  1.0908801229771881e+00 -1.0840515572100602e-01 0.0000000000000000e+00  1.1412472487699374e+00 -1.7083156701397462e-01 0.0000000000000000e+00  1.3080577444636725e+00 4.9477814026567346e-01 0.0000000000000000e+00  1.2801331651333339e+00 3.5768854809079842e-01 0.0000000000000000e+00  1.2511379837319354e+00 -5.3293981070592267e-01 0.0000000000000000e+00  1.1056812515985031e+00 -3.9357780922788993e-01 0.0000000000000000e+00  1.3247525972422785e+00 -4.1859916925015600e-01 0.0000000000000000e+00  1.6780554494620754e+00 -4.9624714751569982e-01 0.0000000000000000e+00  1.4150799419657798e+00 -5.7615848028357464e-01 0.0000000000000000e+00  1.3287947176618979e+00 6.3869497643859347e-10 0.0000000000000000e+00  1.4446590342024914e+00 7.3882016183999640e-10 0.0000000000000000e+00  1.4877530020792709e+00 7.7564302763709414e-10 0.0000000000000000e+00  1.0659981413589457e+00 4.4140991929036215e-10 0.0000000000000000e+00  6.7414314273966136e-01 1.5994638497101515e-10 0.0000000000000000e+00  1.3908869455063753e+00 5.4283129386083339e-10 0.0000000000000000e+00  1.3429285860638185e+00 6.7894183039671419e-10 0.0000000000000000e+00  1.3535869365399356e+00 -6.1493642190122919e-02 0.0000000000000000e+00  1.4319699036284841e+00 -3.9391115911753934e-02 0.0000000000000000e+00  1.4359666437742671e+00 -3.0540312904537181e-02 0.0000000000000000e+00  1.4737198898870369e+00 5.2651923380299620e-10 0.0000000000000000e+00  1.2806973291679227e+00 4.0934659210837858e-10 0.0000000000000000e+00  1.4062500002538292e+00 4.4556383750454090e-10 0.0000000000000000e+00  1.4609486760606774e+00 -2.4564168343934108e-09 0.0000000000000000e+00  1.4999715047440192e+00 -4.7218293816163206e-09 0.0000000000000000e+00  1.4051731435792254e+00 -6.4886994635192104e-09 0.0000000000000000e+00  1.3782500698593620e+00 -3.4347251620032405e-09 0.0000000000000000e+00  1.4430694639648409e+00 -1.0094179182912045e-08 0.0000000000000000e+00  1.4161077717476094e+00 -2.0818252024693597e-03 0.0000000000000000e+00  1.4997507321306844e+00 -2.8156082035104011e-03 0.0000000000000000e+00  1.4110335302190178e+00 -1.5631113213539637e-03 0.0000000000000000e+00  1.2404611806608967e+00 -2.4652192867630801e-01 0.0000000000000000e+00  1.2787821050126762e+00 -2.3926845057815541e-01 0.0000000000000000e+00  4.0895925040835457e-01 3.6589498926501313e-01 0.0000000000000000e+00  3.1761009056631567e-01 3.7974010756197013e-01 0.0000000000000000e+00  0.0000000000000000e+00 0.0000000000000000e+00 0.0000000000000000e+00  1.7758604314401227e-01 2.3083172922004772e-01 0.0000000000000000e+00  1.1236713365900323e-01 9.3066648034858188e-02 0.0000000000000000e+00  0.0000000000000000e+00 0.0000000000000000e+00 0.0000000000000000e+00  9.0829748429834711e-01 -5.6549961704664253e-01 0.0000000000000000e+00  1.4259431299713365e+00 5.8572311383421442e-05 0.0000000000000000e+00  1.4990427651398088e+00 5.2275078967423770e-05 0.0000000000000000e+00  1.4983066572435888e+00 6.9406351303631333e-05 0.0000000000000000e+00  1.3923825092624205e+00 3.3064751737576516e-06 0.0000000000000000e+00  1.4741769889393570e+00 6.2508905645275599e-06 0.0000000000000000e+00  1.4961340552757334e+00 3.4876109775795579e-06 0.0000000000000000e+00  1.1140887631970831e+00 1.1207754406764845e-06 0.0000000000000000e+00  1.3413219039869695e+00 7.5937612972314305e-07 0.0000000000000000e+00  6.1779667149734174e-01 1.6001043332325461e-05 0.0000000000000000e+00  6.1782418291844055e-01 1.2458282225020828e-05 0.0000000000000000e+00  0.0000000000000000e+00 3.3485359925303604e-16 0.0000000000000000e+00  1.3636145955726184e+00 7.7193232613797640e-05 0.0000000000000000e+00  1.3177739519240732e+00 7.1456848037508789e-05 0.0000000000000000e+00  1.4797175348695715e+00 9.8355869017367292e-05 0.0000000000000000e+00  1.0985764381196388e+00 3.1440146939100472e-05 0.0000000000000000e+00  1.3781303701145549e+00 4.0902511952845760e-05 0.0000000000000000e+00  6.5530553876918096e-01 -4.1439797533270311e-06 0.0000000000000000e+00  5.8199190746628715e-01 -5.2126470963293504e-08 0.0000000000000000e+00  5.8199186089852040e-01 6.5816275328462965e-10 0.0000000000000000e+00  9.0340809871099869e-16 0.0000000000000000e+00 0.0000000000000000e+00  1.3757962672183097e+00 1.3587623033859317e-07 0.0000000000000000e+00  1.4964882548506349e+00 6.5181582392408103e-07 0.0000000000000000e+00  1.0697412029532716e+00 -1.3582659111496838e-07 0.0000000000000000e+00  1.3996017280173316e+00 -2.2751248753841350e-07 0.0000000000000000e+00  6.4888551700642128e-01 -6.8278519190186612e-08 0.0000000000000000e+00  6.5525484446861937e-01 -5.5735265188863640e-05 0.0000000000000000e+00  0.0000000000000000e+00 -4.0840858302224532e-16 0.0000000000000000e+00  1.4054563883813478e+00 -6.8563381696269061e-05 0.0000000000000000e+00  1.4981747046653984e+00 5.7536067815328913e-05 0.0000000000000000e+00  1.1308467559210389e+00 -1.8529832109085036e-04 0.0000000000000000e+00  1.4090231731643443e+00 -3.3533751476456843e-04 0.0000000000000000e+00  6.6586167272923780e-01 -1.4797388098910789e-04 0.0000000000000000e+00  6.4888562590344412e-01 -5.4488912432817389e-08 0.0000000000000000e+00  0.0000000000000000e+00 0.0000000000000000e+00 0.0000000000000000e+00  1.4031644476180225e+00 -2.7380474678733972e-07 0.0000000000000000e+00  1.4999411937787532e+00 -2.7037042047252241e-07 0.0000000000000000e+00  1.1216410521139375e+00 -1.5497903383268965e-07 0.0000000000000000e+00  1.4064125896949140e+00 -2.2984401992873276e-07 0.0000000000000000e+00  6.5856961886658572e-01 -3.9064387082293015e-08 0.0000000000000000e+00  1.3930664991717425e+00 3.1849756524177605e-10 0.0000000000000000e+00  1.4994286257208245e+00 3.2713173944056558e-10 0.0000000000000000e+00  6.8374664665068630e-01 -2.1851417200427937e-09 0.0000000000000000e+00  6.8374664404770302e-01 -7.8021159513039738e-10 0.0000000000000000e+00  0.0000000000000000e+00 0.0000000000000000e+00 0.0000000000000000e+00  1.3878966714130851e+00 -2.0326836866761339e-08 0.0000000000000000e+00  1.4999230804307986e+00 -2.5659601326017140e-08 0.0000000000000000e+00  5.2278400182363460e-01 -5.2477086994241225e-09 0.0000000000000000e+00  5.2278399261153230e-01 -2.5976055157059545e-09 0.0000000000000000e+00  0.0000000000000000e+00 0.0000000000000000e+00 0.0000000000000000e+00  1.0547575565400862e+00 -9.3343614859668285e-09 0.0000000000000000e+00  1.3236896159664211e+00 -3.3699969915857045e-08 0.0000000000000000e+00  6.2110991303820484e-01 -2.2534562745801570e-08 0.0000000000000000e+00  6.2110987964037456e-01 -1.3396157776479975e-08 0.0000000000000000e+00  0.0000000000000000e+00 0.0000000000000000e+00 0.0000000000000000e+00  1.0081938982208458e+00 -2.9304166660864862e-08 0.0000000000000000e+00  1.3639553389674379e+00 -6.2728557202818955e-08 0.0000000000000000e+00  1.3943928708209519e+00 -1.2237081015388440e-07 0.0000000000000000e+00  1.4981010497294616e+00 -9.8841639252297201e-08 0.0000000000000000e+00  6.8548940582161022e-01 -1.1187609174233260e-03 0.0000000000000000e+00  6.8429766753114385e-01 -3.1351063301256275e-04 0.0000000000000000e+00  0.0000000000000000e+00 0.0000000000000000e+00 0.0000000000000000e+00  1.4141202993596740e+00 -5.1665789373578396e-03 0.0000000000000000e+00  1.4206002981169898e+00 -1.8134153952937692e-03 0.0000000000000000e+00  6.5070943750325116e-01 -5.5579034526798531e-08 0.0000000000000000e+00  6.5070935631893001e-01 -3.9357325364831901e-08 0.0000000000000000e+00  0.0000000000000000e+00 0.0000000000000000e+00 0.0000000000000000e+00  1.0976429881389600e+00 -9.4129457617462996e-08 0.0000000000000000e+00  1.4044876345181629e+00 -1.8730873941013084e-07 0.0000000000000000e+00  1.4050131874152105e+00 -2.5069851988787795e-07 0.0000000000000000e+00  1.4999986904248617e+00 -2.4686379107964197e-07 0.0000000000000000e+00  6.6337465217212199e-01 -2.6349363120970946e-05 0.0000000000000000e+00  6.6334889114726436e-01 3.5248732509646505e-05 0.0000000000000000e+00  0.0000000000000000e+00 0.0000000000000000e+00 0.0000000000000000e+00  1.1485767948290635e+00 -5.8497463942295310e-04 0.0000000000000000e+00  1.4137298504196214e+00 -5.5601557268761454e-04 0.0000000000000000e+00  1.4092821375647790e+00 -9.9979428630811806e-05 0.0000000000000000e+00  1.5000805422922805e+00 -4.2761708167615952e-04 0.0000000000000000e+00  6.1566336810196531e-01 -5.7655530868758720e-08 0.0000000000000000e+00  6.1566326367491364e-01 -6.3706445992499978e-08 0.0000000000000000e+00  0.0000000000000000e+00 0.0000000000000000e+00 0.0000000000000000e+00  1.0939550480260523e+00 -1.7672059397585969e-07 0.0000000000000000e+00  1.3930569849965877e+00 -2.684431