<?xml version="1.0"?>
<VTKFile type="UnstructuredGrid"  version="0.1"  >
<UnstructuredGrid>
<Piece  NumberOfPoints="525" NumberOfCells="924">
<Points>
<DataArray  type="Float64"  NumberOfComponents="3"  format="ascii">0 0 0  2.2 0 0  2.2 0.41 0  0 0.41 0  0.15 0.2 0  0.25 0.2 0  0.2 0.15 0  0.2 0.25 0  0.104762 0 0  0.209524 0 0  0.314286 0 0  0.419048 0 0  0.52381 0 0  0.628571 0 0  0.733333 0 0  0.838095 0 0  0.9428569999999999 0 0  1.04762 0 0  1.15238 0 0  1.25714 0 0  1.3619 0 0  1.46667 0 0  1.57143 0 0  1.67619 0 0  1.78095 0 0  1.88571 0 0  1.99048 0 0  2.09524 0 0  2.2 0.1025 0  2.2 0.205 0  2.2 0.3075 0  2.1 0.41 0  2 0.41 0  1.9 0.41 0  1.8 0.41 0  1.7 0.41 0  1.6 0.41 0  1.5 0.41 0  1.4 0.41 0  1.3 0.41 0  1.2 0.41 0  1.1 0.41 0  1 0.41 0  0.9 0.41 0  0.8 0.41 0  0.7 0.41 0  0.6 0.41 0  0.5 0.41 0  0.4 0.41 0  0.3 0.41 0  0.2 0.41 0  0.1 0.41 0  0 0.3075 0  0 0.205 0  0 0.1025 0  0.1566987973585577 0.2250001169958213 0  0.1749998830041787 0.2433012026414423 0  0.2250001169958213 0.2433012026414423 0  0.2433012026414423 0.2250001169958213 0  0.2433012026414423 0.1749998830041787 0  0.2250001169958213 0.1566987973585577 0  0.1749998830041787 0.1566987973585577 0  0.1566987973585577 0.1749998830041787 0  0.352033 0.262216 0  1.04579 0.252253 0  1.24065 0.243419 0  0.985775 0.171509 0  1.30324 0.187395 0  0.890988 0.190768 0  1.39085 0.202767 0  0.801464 0.204685 0  1.49904 0.204666 0  0.704267 0.202289 0  1.60238 0.204951 0  0.487789 0.19191 0  1.72935 0.219637 0  1.83335 0.187427 0  2.03359 0.193642 0  0.314663 0.307348 0  0.249039 0.333583 0  2.12147 0.253405 0  2.06373 0.0836837 0  0.0734726 0.267055 0  0.143989 0.0677174 0  0.0613613 0.33781 0  0.299628 0.236829 0  0.527114 0.295386 0  0.262384 0.26549 0  0.275777 0.18341 0  1.74578 0.330928 0  1.84001 0.302448 0  1.64998 0.313838 0  0.648421 0.302367 0  1.54544 0.308508 0  0.755686 0.306156 0  1.42668 0.314809 0  0.870524 0.298596 0  1.22553 0.112785 0  1.05603 0.147372 0  0.969346 0.329867 0  1.32527 0.276284 0  2.02914 0.29511 0  1.88168 0.119486 0  1.79545 0.104842 0  1.35688 0.0892539 0  1.69041 0.105324 0  0.914199 0.09555660000000001 0  1.58234 0.102923 0  0.61843 0.10815 0  1.47999 0.101161 0  0.725217 0.104273 0  0.821727 0.102306 0  1.96725 0.105778 0  0.418624 0.241547 0  0.135226 0.239087 0  1.14921 0.314841 0  0.404508 0.333259 0  0.590155 0.206269 0  2.12554 0.150731 0  1.93166 0.22436 0  0.104689 0.190046 0  0.267856 0.07447529999999999 0  0.269368 0.221581 0  0.434446 0.114927 0  1.0089 0.07933809999999999 0  0.953023 0.246698 0  1.25853 0.33355 0  1.05268 0.340828 0  2.1369 0.067383 0  0.522398 0.112537 0  1.3421 0.348929 0  0.215186 0.289473 0  0.203197 0.335348 0  1.13984 0.190728 0  1.93813 0.330504 0  1.10505 0.0883705 0  0.341988 0.0824728 0  0.253113 0.138035 0  0.291932 0.131907 0  0.203713 0.102439 0  0.150375 0.134668 0  0.151494 0.309119 0  0.354384 0.17896 0  0.06853670000000001 0.100776 0  0.424128 0.180088 0  0.474925 0.0568661 0  2.10843 0.347669 0  2.160735 0.2804525 0  2.160735 0.2292025 0  2.2 0.25625 0  2.079485 0.04184185 0  2.027105 0.04184185 0  2.04286 0 0  0.1767565 0.0338587 0  0.1243755 0.0338587 0  0.157143 0 0  0.08068065000000001 0.373905 0  0.03068065 0.373905 0  0.05 0.41 0  0.03068065 0.322655 0  0 0.35875 0  0.281851 0.3204655 0  0.2745195 0.3717915 0  0.3073315 0.358674 0  0.06741695 0.3024325 0  0.0367363 0.2872775 0  0.3071455 0.2720885 0  0.3258305 0.2495225 0  0.333348 0.284782 0  0.2557115 0.2995365 0  0.2885235 0.286419 0  2.075305 0.2742575 0  2.031365 0.244376 0  2.07753 0.2235235 0  2.01549 0.09473085000000001 0  1.978865 0.052889 0  2.00042 0.14971 0  2.04866 0.13866285 0  0.472869 0.2684665 0  0.4532065 0.2167285 0  0.5074514999999999 0.243648 0  2.16277 0.1778655 0  2.16277 0.1266155 0  2.2 0.15375 0  1.90667 0.171923 0  1.882505 0.2058935 0  1.857515 0.1534565 0  1.885835 0.263404 0  1.83668 0.2449375 0  0.6042925 0.1572095 0  0.647211 0.204279 0  0.6613485 0.1552195 0  0.3595855 0.3203035 0  0.3782705 0.2977375 0  0.155113 0.241194 0  0.1459625 0.2320435 0  0.1646446609406726 0.2353553390593274 0  0.259539 0.179205 0  0.2628885 0.191705 0  0.2482962819455563 0.1870590127797247 0  0.281006 0.2511595 0  1.0209025 0.1594405 0  1.05091 0.1998125 0  1.0157825 0.211881 0  1.264385 0.15009 0  1.23309 0.178102 0  1.271945 0.215407 0  1.291205 0.10101945 0  1.33006 0.13832445 0  0.928528 0.0477783 0  0.876147 0.0477783 0  0.890476 0 0  0.9025935 0.1431623 0  0.9499869999999999 0.1335328 0  0.9383815 0.1811385 0  0.867963 0.0989313 0  0.8563575 0.146537 0  0.8299110000000001 0.051153 0  1.411775 0.04462695 0  1.35939 0.04462695 0  1.414285 0 0  1.373865 0.14601045 0  1.347045 0.195081 0  1.418435 0.09520745 0  1.43542 0.151964 0  1.47333 0.0505805 0  0.7775300000000001 0.051153 0  0.785714 0 0  0.8115954999999999 0.1534955 0  0.8462259999999999 0.1977265 0  0.7734719999999999 0.1032895 0  0.7633405 0.154479 0  0.729275 0.0521365 0  1.52571 0.0505805 0  1.51905 0 0  1.489515 0.1529135 0  1.444945 0.2037165 0  1.531165 0.102042 0  1.54069 0.1537945 0  1.576885 0.0514615 0  1.9804 0.259735 0  1.982625 0.209001 0  1.820005 0.356224 0  1.870005 0.356224 0  1.85 0.41 0  1.78468 0.2610425 0  1.78135 0.203532 0  1.72289 0.370464 0  1.77289 0.370464 0  1.75 0.41 0  1.792895 0.316688 0  1.737565 0.2752825 0  1.62499 0.361919 0  1.67499 0.361919 0  1.65 0.41 0  1.69788 0.322383 0  1.689665 0.2667375 0  1.62618 0.2593945 0  1.665865 0.212294 0  0.6242105 0.3561835 0  0.6742105 0.3561835 0  0.6499999999999999 0.41 0  0.6192880000000001 0.254318 0  0.6763440000000001 0.252328 0  1.52272 0.359254 0  1.57272 0.359254 0  1.55 0.41 0  1.59771 0.311173 0  1.57391 0.2567295 0  1.52224 0.256587 0  1.55071 0.2048085 0  0.727843 0.358078 0  0.7778430000000001 0.358078 0  0.75 0.41 0  0.7020535 0.3042615 0  0.7299765 0.2542225 0  0.778575 0.2554205 0  0.7528655 0.203487 0  1.41334 0.3624045 0  1.46334 0.3624045 0  1.45 0.41 0  1.48606 0.3116585 0  1.46286 0.2597375 0  1.408765 0.258788 0  0.8352619999999999 0.354298 0  0.885262 0.354298 0  0.8500000000000001 0.41 0  0.813105 0.302376 0  0.8359939999999999 0.2516405 0  0.880756 0.244682 0  0.9346730000000001 0.3699335 0  0.984673 0.3699335 0  0.95 0.41 0  0.9199349999999999 0.3142315 0  0.676894 0.0521365 0  0.680952 0 0  0.714742 0.153281 0  0.6718235 0.1062115 0  0.6235005 0.054075 0  1.629265 0.0514615 0  1.62381 0 0  1.59236 0.153937 0  1.636375 0.1041235 0  1.646395 0.1551375 0  1.6833 0.052662 0  1.73568 0.052662 0  1.72857 0 0  1.70988 0.1624805 0  1.74293 0.105083 0  1.7624 0.1622395 0  1.7882 0.052421 0  1.84058 0.052421 0  1.83333 0 0  1.8144 0.1461345 0  1.838565 0.112164 0  1.883695 0.059743 0  1.124605 0.3624205 0  1.174605 0.3624205 0  1.15 0.41 0  1.314255 0.2318395 0  1.28296 0.2598515 0  1.35806 0.2395255 0  1.375975 0.2955465 0  1.92648 0.052889 0  1.938095 0 0  1.924465 0.112632 0  1.949455 0.165069 0  0.352254 0.3716295 0  0.402254 0.3716295 0  0.35 0.41 0  0.513557 0.352693 0  0.563557 0.352693 0  0.55 0.41 0  0.5877675 0.2988765 0  0.5586344999999999 0.2508275 0  0.538972 0.1990895 0  0.452254 0.3716295 0  0.45 0.41 0  0.465811 0.3143225 0  0.411566 0.287403 0  0.3853285 0.2518815 0  0.1199575 0.2145665 0  0.0890808 0.2285505 0  0.1043493 0.253071 0  0.2245195 0.3717915 0  0.25 0.41 0  0.291071 0.03723765 0  0.23869 0.03723765 0  0.261905 0 0  0.265876 0.2435355 0  0.2563345 0.2232905 0  0.2528425 0.245245 0  0.284498 0.229205 0  1.032465 0.11335505 0  0.9973375 0.12542355 0  0.9615494999999999 0.08744735000000001 0  0.9220055 0.218733 0  0.9693989999999999 0.2091035 0  0.9611845 0.2882825 0  0.9117735 0.272647 0  1.229265 0.371775 0  1.279265 0.371775 0  1.25 0.41 0  1.02634 0.375414 0  1.07634 0.375414 0  1.05 0.41 0  1.011013 0.3353475 0  2.11607 0.0336915 0  2.16845 0.0336915 0  2.14762 0 0  2.16845 0.0849415 0  2.2 0.05125 0  2.100315 0.07553335 0  0.5562765000000001 0.159403 0  0.570414 0.1103435 0  0.5050935 0.1522235 0  1.32105 0.3794645 0  1.37105 0.3794645 0  1.35 0.41 0  1.333685 0.3126065 0  1.38439 0.331869 0  0.9994065 0.2494755 0  1.007568 0.29106 0  1.300315 0.3412395 0  1.2919 0.304917 0  2.13122 0.109057 0  2.094635 0.11720735 0  0.2725725 0.2024955 0  0.259684 0.2107905 0  0.2482962819455563 0.2129409872202754 0  0.2877025 0.2101195 0  2.123505 0.202068 0  2.079565 0.1721865 0  1.02826 0.03966905 0  0.9758784999999999 0.03966905 0  0.9952384999999999 0 0  1.049235 0.2965405 0  1.100945 0.3278345 0  1.0975 0.283547 0  0.5711200000000001 0.054075 0  0.5761905 0 0  0.523104 0.0562685 0  1.24959 0.2884845 0  1.20387 0.3241955 0  1.19493 0.27913 0  0.238785 0.2774815 0  0.2321125 0.311528 0  0.226118 0.3344655 0  0.2015985 0.3726739999999999 0  1.144525 0.2527845 0  1.190245 0.2170735 0  1.092815 0.2214905 0  0.2091915 0.3124105 0  0.220093 0.266387 0  0.243692 0.2543955 0  0.2353553390593274 0.2353553390593274 0  0.478422 0.113732 0  0.4611175 0.1534185 0  1.919065 0.370252 0  1.969065 0.370252 0  1.95 0.41 0  1.983635 0.312807 0  2.01457 0.352555 0  1.88907 0.316476 0  1.934895 0.277432 0  1.182685 0.1517565 0  1.097935 0.16905 0  1.128715 0.04418525 0  1.076335 0.04418525 0  1.1 0 0  1.056975 0.08385429999999999 0  1.08054 0.11787125 0  1.122445 0.13954925 0  1.16529 0.10057775 0  0.304922 0.07847404999999999 0  0.328137 0.0412364 0  0.380518 0.0412364 0  0.366667 0 0  0.388217 0.09869990000000001 0  0.426747 0.0574635 0  0.31696 0.1071899 0  0.279894 0.10319115 0  0.2725225 0.134971 0  0.2604845 0.10625515 0  0.228413 0.120237 0  0.2143565 0.129569 0  0.2390565 0.147367 0  1.30701 0.04462695 0  1.30952 0 0  1.241335 0.0563925 0  0.2357845 0.08845715 0  1.188955 0.0563925 0  1.20476 0 0  0.2066185 0.0512195 0  0.173851 0.08507819999999999 0  0.0367363 0.2360275 0  0 0.25625 0  0.264445 0.1607225 0  0.248207 0.1565175 0  0.2353553390593274 0.1646446609406726 0  0.2838545 0.1576585 0  0.130694 0.182523 0  0.1273445 0.195023 0  0.1517037180544437 0.1870590127797247 0  0.127532 0.162357 0  0.153537 0.154834 0  0.0523445 0.197523 0  0
[...]
<PointData  Vectors="u"> 
<DataArray  type="Float64"  Name="u"  NumberOfComponents="3" format="ascii">1.0472066471657982e-15 0.0000000000000000e+00 0.0000000000000000e+00  0.0000000000000000e+00 0.0000000000000000e+00 0.0000000000000000e+00  0.0000000000000000e+00 0.0000000000000000e+00 0.0000000000000000e+00  6.7422054912082738e-16 0.0000000000000000e+00 0.0000000000000000e+00  0.0000000000000000e+00 0.0000000000000000e+00 0.0000000000000000e+00  0.0000000000000000e+00 0.0000000000000000e+00 0.0000000000000000e+00  0.0000000000000000e+00 -3.4549786242821187e-16 0.0000000000000000e+00  0.0000000000000000e+00 0.0000000000000000e+00 0.0000000000000000e+00  0.0000000000000000e+00 -5.8777502077060565e-16 0.0000000000000000e+00  0.0000000000000000e+00 -4.1159155080942707e-16 0.0000000000000000e+00  0.0000000000000000e+00 5.0177905681258642e-16 0.0000000000000000e+00  0.0000000000000000e+00 0.0000000000000000e+00 0.0000000000000000e+00  0.0000000000000000e+00 4.1924382278926118e-16 0.0000000000000000e+00  0.0000000000000000e+00 2.0922646789562315e-15 0.0000000000000000e+00  0.0000000000000000e+00 1.5271485252007352e-15 0.0000000000000000e+00  0.0000000000000000e+00 6.9724421721787582e-16 0.0000000000000000e+00  0.0000000000000000e+00 -5.8074006084768452e-16 0.0000000000000000e+00  0.0000000000000000e+00 0.0000000000000000e+00 0.0000000000000000e+00  0.0000000000000000e+00 3.4889520143547553e-16 0.0000000000000000e+00  0.0000000000000000e+00 3.6507928286813712e-16 0.0000000000000000e+00  0.0000000000000000e+00 0.0000000000000000e+00 0.0000000000000000e+00  3.8038541901012046e-16 0.0000000000000000e+00 0.0000000000000000e+00  1.0246515389551442e-15 -5.1969694848443530e-16 0.0000000000000000e+00  -9.5013179767337525e-16 0.0000000000000000e+00 0.0000000000000000e+00  -5.0671946424217375e-16 0.0000000000000000e+00 0.0000000000000000e+00  0.0000000000000000e+00 -5.7689823615134899e-16 0.0000000000000000e+00  0.0000000000000000e+00 1.4196067934590415e-15 0.0000000000000000e+00  0.0000000000000000e+00 -5.4151004142753136e-16 0.0000000000000000e+00  1.1249999999534961e+00 5.0472317634820521e-10 0.0000000000000000e+00  1.5000000000006253e+00 8.4960512541324581e-10 0.0000000000000000e+00  1.1250000000466496e+00 5.0434252602488052e-10 0.0000000000000000e+00  -7.3664355944598488e-16 0.0000000000000000e+00 0.0000000000000000e+00  0.0000000000000000e+00 -8.7729975149954296e-16 0.0000000000000000e+00  7.6430838217978833e-16 -6.3659871280091125e-16 0.0000000000000000e+00  0.0000000000000000e+00 4.5776818741937415e-16 0.0000000000000000e+00  0.0000000000000000e+00 0.0000000000000000e+00 0.0000000000000000e+00  0.0000000000000000e+00 0.0000000000000000e+00 0.0000000000000000e+00  0.0000000000000000e+00 0.0000000000000000e+00 0.0000000000000000e+00  0.0000000000000000e+00 0.0000000000000000e+00 0.0000000000000000e+00  0.0000000000000000e+00 3.1135385932626621e-16 0.0000000000000000e+00  0.0000000000000000e+00 8.3848208492084381e-16 0.0000000000000000e+00  0.0000000000000000e+00 0.0000000000000000e+00 0.0000000000000000e+00  0.0000000000000000e+00 0.0000000000000000e+00 0.0000000000000000e+00  0.0000000000000000e+00 9.6500117570404208e-16 0.0000000000000000e+00  0.0000000000000000e+00 6.1432288754932349e-16 0.0000000000000000e+00  0.0000000000000000e+00 -6.4009433558224258e-16 0.0000000000000000e+00  0.0000000000000000e+00 0.0000000000000000e+00 0.0000000000000000e+00  0.0000000000000000e+00 0.0000000000000000e+00 0.0000000000000000e+00  4.1010161462309341e-16 0.0000000000000000e+00 0.0000000000000000e+00  0.0000000000000000e+00 -1.6226134465299189e-15 0.0000000000000000e+00  0.0000000000000000e+00 0.0000000000000000e+00 0.0000000000000000e+00  0.0000000000000000e+00 0.0000000000000000e+00 0.0000000000000000e+00  1.1250000000000004e+00 0.0000000000000000e+00 0.0000000000000000e+00  1.5000000000000004e+00 0.0000000000000000e+00 0.0000000000000000e+00  1.1249999999999998e+00 -5.4604032644480697e-16 0.0000000000000000e+00  0.0000000000000000e+00 -3.5029454029899287e-16 0.0000000000000000e+00  8.7575177989768085e-16 6.5678188192711250e-16 0.0000000000000000e+00  7.5156025514833305e-16 -3.5990768896267689e-16 0.0000000000000000e+00  0.0000000000000000e+00 0.0000000000000000e+00 0.0000000000000000e+00  0.0000000000000000e+00 0.0000000000000000e+00 0.0000000000000000e+00  -1.2249289055413763e-15 0.0000000000000000e+00 0.0000000000000000e+00  0.0000000000000000e+00 0.0000000000000000e+00 0.0000000000000000e+00  -1.2177301696814591e-15 0.0000000000000000e+00 0.0000000000000000e+00  1.2556521657612671e+00 -3.3366739482145746e-01 0.0000000000000000e+00  1.4202888094447919e+00 5.1191808656682338e-05 0.0000000000000000e+00  1.4473181785818512e+00 -1.9403408422881966e-06 0.0000000000000000e+00  1.4599986538316905e+00 1.1939771452572023e-04 0.0000000000000000e+00  1.4889367585829552e+00 -2.6988623102084035e-06 0.0000000000000000e+00  1.4928405401938782e+00 3.5447626492100478e-04 0.0000000000000000e+00  1.4998219776885755e+00 -1.8472700764314995e-06 0.0000000000000000e+00  1.5000947007071330e+00 7.4003788155051263e-04 0.0000000000000000e+00  1.4999960156734367e+00 -7.1296079194448997e-07 0.0000000000000000e+00  1.4999454180872951e+00 9.8208598240163286e-04 0.0000000000000000e+00  1.4999999143548097e+00 -2.0223506300843150e-07 0.0000000000000000e+00  1.4581940733439864e+00 -5.7243856493487209e-03 0.0000000000000000e+00  1.4923530592202519e+00 -1.7129968512446107e-08 0.0000000000000000e+00  1.4889776228899219e+00 6.9104893608965246e-09 0.0000000000000000e+00  1.4953954495369637e+00 2.9126811164137853e-09 0.0000000000000000e+00  1.4322666271413722e+00 -4.3073514945791103e-01 0.0000000000000000e+00  1.7592288947586412e+00 -2.7566486642411747e-01 0.0000000000000000e+00  1.4163696358638784e+00 1.1387324014720583e-09 0.0000000000000000e+00  9.7468252427531732e-01 8.6006698310267062e-10 0.0000000000000000e+00  1.2763819508554162e+00 5.6731509184032602e-01 0.0000000000000000e+00  1.5527240886040545e+00 -2.9513966032207306e-01 0.0000000000000000e+00  1.0836235897430480e+00 2.9578244483110544e-01 0.0000000000000000e+00  8.2809068952792020e-01 -4.1559391670604812e-01 0.0000000000000000e+00  1.2124237187178202e+00 -2.2584233072355790e-02 0.0000000000000000e+00  1.1332049510504867e+00 -6.0934284176124232e-01 0.0000000000000000e+00  3.3907277613364994e-01 2.2176558638883323e-01 0.0000000000000000e+00  9.3398471660682603e-01 -1.0698387078264607e-09 0.0000000000000000e+00  1.1610548609139335e+00 4.9286475992577179e-09 0.0000000000000000e+00  1.0771906141372769e+00 -4.1963138369597553e-08 0.0000000000000000e+00  1.1603922183476278e+00 -4.0000104290181983e-04 0.0000000000000000e+00  1.1175883323949403e+00 -2.1574715322727890e-07 0.0000000000000000e+00  1.1338746987859165e+00 6.3457616426930701e-04 0.0000000000000000e+00  1.0696137085771429e+00 -6.9038321212616722e-07 0.0000000000000000e+00  1.1870316718830514e+00 2.9676508926462531e-04 0.0000000000000000e+00  1.1964765182173211e+00 -1.2507930627068771e-06 0.0000000000000000e+00  1.3814775654426912e+00 3.9307217282886008e-05 0.0000000000000000e+00  9.4340576381515939e-01 5.9176570984020269e-05 0.0000000000000000e+00  1.3186311344214776e+00 -2.0620113938788950e-06 0.0000000000000000e+00  1.2101792211948994e+00 1.9180789195054984e-09 0.0000000000000000e+00  1.2389895064865213e+00 5.3708816927856120e-09 0.0000000000000000e+00  1.1419408219214624e+00 3.1684276496231705e-09 0.0000000000000000e+00  1.0218127117781997e+00 -1.0615571462633482e-06 0.0000000000000000e+00  1.1453787620583253e+00 -2.1745558835807358e-08 0.0000000000000000e+00  1.0726373561502309e+00 1.2446521628541258e-04 0.0000000000000000e+00  1.1280886228363591e+00 -1.3587395214480492e-07 0.0000000000000000e+00  1.1672554196195957e+00 1.7908750263462649e-03 0.0000000000000000e+00  1.1151379250888289e+00 -4.5171349906484879e-07 0.0000000000000000e+00  1.1389236892445280e+00 5.3220898934312668e-04 0.0000000000000000e+00  1.1240440223913069e+00 2.9851477167710551e-04 0.0000000000000000e+00  1.1486018377602303e+00 2.8988714348328928e-09 0.0000000000000000e+00  1.3609252940155960e+00 -1.1948042631490602e-01 0.0000000000000000e+00  6.0317290891420672e-01 5.5116748261684390e-01 0.0000000000000000e+00  1.0693647204742369e+00 2.6536337407714106e-06 0.0000000000000000e+00  1.0366446122032500e+00 -1.1800620780009601e-01 0.0000000000000000e+00  1.4968658245083040e+00 -1.7304796831342189e-03 0.0000000000000000e+00  1.3948795591703280e+00 1.0634333660703015e-09 0.0000000000000000e+00  1.4866219046240852e+00 6.1734825991950789e-09 0.0000000000000000e+00  6.3055600537480661e-01 -1.0076489008717324e-01 0.0000000000000000e+00  1.5398654038971942e+00 3.2823166874769227e-01 0.0000000000000000e+00  3.1500258669351233e-01 -2.9064185980239876e-01 0.0000000000000000e+00  1.2125415256724903e+00 7.6413085287916918e-02 0.0000000000000000e+00  9.3640988544005976e-01 3.0240309382328833e-05 0.0000000000000000e+00  1.4378845634253943e+00 1.7949437070715726e-04 0.0000000000000000e+00  9.1017272711253983e-01 -1.1678170469652337e-06 0.0000000000000000e+00  8.4147789146237650e-01 1.3256380142910773e-05 0.0000000000000000e+00  8.2402955332433225e-01 3.2459487950930699e-10 0.0000000000000000e+00  1.1979465513028862e+00 1.3640844787758493e-02 0.0000000000000000e+00  7.6060075981095931e-01 -6.5126312210738161e-07 0.0000000000000000e+00  1.7074089291946530e+00 -1.9352141264560521e-01 0.0000000000000000e+00  1.8985076383618784e+00 -1.1076453059690548e-02 0.0000000000000000e+00  1.4927297010019729e+00 9.8396479539489661e-06 0.0000000000000000e+00  9.3778985768862888e-01 2.3626937377969438e-09 0.0000000000000000e+00  1.0144889490159794e+00 7.3240331917297921e-06 0.0000000000000000e+00  1.1825535135424343e+00 2.5066688312825869e-01 0.0000000000000000e+00  1.0018830535814680e+00 5.5111140536311443e-01 0.0000000000000000e+00  1.1425386516402518e+00 5.4291519092955876e-01 0.0000000000000000e+00  1.7617866144610705e+00 3.6628749264811591e-02 0.0000000000000000e+00  1.0960560102110763e+00 -5.7071237783610973e-01 0.0000000000000000e+00  1.7800366434654677e+00 4.6760488601791950e-01 0.0000000000000000e+00  1.1038976298204295e+00 9.6984499360137380e-02 0.0000000000000000e+00  1.2378954066386445e+00 -4.1947204448155606e-01 0.0000000000000000e+00  1.3621446367066252e+00 1.5120879460765433e-02 0.0000000000000000e+00  7.4111761272257526e-01 1.7441385704020478e-02 0.0000000000000000e+00  7.7348803419561041e-01 3.4325695514526604e-10 0.0000000000000000e+00  1.2967966771408108e+00 7.1691878025009763e-10 0.0000000000000000e+00  1.4790924089641981e+00 9.3312700161725591e-10 0.0000000000000000e+00  1.4062499999792619e+00 7.5296743284477035e-10 0.0000000000000000e+00  5.4983050942135925e-01 2.1585867401128167e-10 0.0000000000000000e+00  5.4983051008459094e-01 3.6743738758112793e-10 0.0000000000000000e+00  0.0000000000000000e+00 0.0000000000000000e+00 0.0000000000000000e+00  1.1540217225186937e+00 -4.9377809930693031e-02 0.0000000000000000e+00  9.3081340630254772e-01 -1.0740358654794063e-01 0.0000000000000000e+00  0.0000000000000000e+00 -2.7150235670669972e-15 0.0000000000000000e+00  7.4132773674925823e-01 1.1463918639464608e-01 0.0000000000000000e+00  5.2809405474664473e-01 5.4819631800931135e-02 0.0000000000000000e+00  0.0000000000000000e+00 1.1170816027327172e-15 0.0000000000000000e+00  1.0643078280627283e+00 2.3134948682641951e-01 0.0000000000000000e+00  6.5624999999999956e-01 0.0000000000000000e+00 0.0000000000000000e+00  1.6044839865401705e+00 -4.1509127185076394e-01 0.0000000000000000e+00  1.0932624004741560e+00 -1.0849660516199386e-01 0.0000000000000000e+00  1.1438228059074376e+00 -1.7122073783463576e-01 0.0000000000000000e+00  1.3092386799987439e+00 4.9693571622411098e-01 0.0000000000000000e+00  1.2805354798475137e+00 3.5958605861828608e-01 0.0000000000000000e+00  1.2538576400894292e+00 -5.3339690944071938e-01 0.0000000000000000e+00  1.1070482999937625e+00 -3.9646948583747421e-01 0.0000000000000000e+00  1.3275656326946013e+00 -4.2135544548204373e-01 0.0000000000000000e+00  1.6803943933698178e+00 -4.9613391634036674e-01 0.0000000000000000e+00  1.4177985428847450e+00 -5.7591183773661236e-01 0.0000000000000000e+00  1.3287947174651704e+00 1.5183027877811846e-09 0.0000000000000000e+00  1.4446590337376199e+00 2.7592549171525937e-09 0.0000000000000000e+00  1.4877530020121981e+00 1.9099146737367826e-09 0.0000000000000000e+00  1.0659981423707641e+00 1.6543160557801525e-09 0.0000000000000000e+00  6.7414314409885212e-01 8.7481169237973967e-10 0.0000000000000000e+00  1.3908869465947515e+00 3.3239261510104753e-09 0.0000000000000000e+00  1.3429285865152636e+00 2.0026556018372902e-09 0.0000000000000000e+00  1.3464640078268084e+00 -6.3790753254500843e-02 0.0000000000000000e+00  1.4260488132574527e+00 -4.3553275143654216e-02 0.0000000000000000e+00  1.4305123401717410e+00 -2.8677282372076833e-02 0.0000000000000000e+00  1.4737198897990738e+00 9.1577519656637497e-10 0.0000000000000000e+00  1.2806973289223762e+00 6.9250708844230298e-10 0.0000000000000000e+00  1.4062500000219547e+00 7.5265936562119147e-10 0.0000000000000000e+00  1.4609486787651589e+00 6.7096846729814231e-09 0.0000000000000000e+00  1.4999715046397764e+00 7.5916943245504737e-09 0.0000000000000000e+00  1.4051731505746325e+00 6.8933030120635689e-09 0.0000000000000000e+00  1.3782500642355555e+00 6.4731216788050017e-09 0.0000000000000000e+00  1.4430694570249447e+00 6.7719786091934259e-09 0.0000000000000000e+00  1.4183370413671439e+00 1.7639409383841606e-03 0.0000000000000000e+00  1.4996665928954318e+00 4.4295645646636757e-04 0.0000000000000000e+00  1.4124784565278503e+00 1.1083793553951170e-03 0.0000000000000000e+00  1.2421442015308939e+00 -2.4938183913156919e-01 0.0000000000000000e+00  1.2789817707412274e+00 -2.4452697224232472e-01 0.0000000000000000e+00  4.0852657252609331e-01 3.6559455533786361e-01 0.0000000000000000e+00  3.1730536601400322e-01 3.7968185887382006e-01 0.0000000000000000e+00  0.0000000000000000e+00 0.0000000000000000e+00 0.0000000000000000e+00  1.7763454189753922e-01 2.3211644112126270e-01 0.0000000000000000e+00  1.1231274585215367e-01 9.4986059648149671e-02 0.0000000000000000e+00  0.0000000000000000e+00 -3.1835700224781902e-16 0.0000000000000000e+00  9.0942233366274994e-01 -5.6389075381780718e-01 0.0000000000000000e+00  1.4259366716206627e+00 7.1110469343610257e-05 0.0000000000000000e+00  1.4990418290844927e+00 5.3183680590674884e-05 0.0000000000000000e+00  1.4983076549800718e+00 8.8225197696638495e-05 0.0000000000000000e+00  1.3923792452670420e+00 -2.2805675583878552e-06 0.0000000000000000e+00  1.4741746679929773e+00 -1.6696048514188817e-06 0.0000000000000000e+00  1.4961346835398832e+00 -2.6335208711458424e-06 0.0000000000000000e+00  1.1140853076722275e+00 -1.6423936917680692e-06 0.0000000000000000e+00  1.3413200920692234e+00 -2.0757537515552374e-06 0.0000000000000000e+00  6.1780388068738790e-01 3.1843517548788094e-05 0.0000000000000000e+00  6.1788860751050900e-01 5.2729379809616371e-05 0.0000000000000000e+00  0.0000000000000000e+00 0.0000000000000000e+00 0.0000000000000000e+00  1.3636772162566668e+00 2.4674270039680505e-04 0.0000000000000000e+00  1.3177903962156137e+00 1.3939516952350496e-04 0.0000000000000000e+00  1.4797299393407628e+00 2.1383678276780960e-04 0.0000000000000000e+00  1.0987185385139226e+00 1.9991807734123199e-04 0.0000000000000000e+00  1.3782764113263362e+00 3.8036151118296733e-04 0.0000000000000000e+00  6.5548737029610460e-01 8.5365831678619954e-05 0.0000000000000000e+00  5.8199152986821912e-01 -2.2251423327418737e-07 0.0000000000000000e+00  5.8199094951494934e-01 -3.3110089945333375e-07 0.0000000000000000e+00  8.0985849069774696e-16 0.0000000000000000e+00 0.0000000000000000e+00  1.3757953273322676e+00 -1.7304102433759331e-06 0.0000000000000000e+00  1.4964879981111370e+00 -2.3797542484618758e-06 0.0000000000000000e+00  1.0697406153773574e+00 -7.3892858486996294e-07 0.0000000000000000e+00  1.3996013894922257e+00 -1.1276521038638722e-06 0.0000000000000000e+00  6.4888542113023240e-01 -1.5212363481363292e-07 0.0000000000000000e+00  6.5567763375043231e-01 1.1703468017169901e-04 0.0000000000000000e+00  0.0000000000000000e+00 0.0000000000000000e+00 0.0000000000000000e+00  1.4057213307782224e+00 5.5573944807775510e-04 0.0000000000000000e+00  1.4982007123908414e+00 5.3090168844729230e-04 0.0000000000000000e+00  1.1314783353221680e+00 4.0601740499305098e-04 0.0000000000000000e+00  1.4095157666003060e+00 7.3684674189833767e-04 0.0000000000000000e+00  6.6668851520797945e-01 1.5496080129242046e-04 0.0000000000000000e+00  6.4888563930744880e-01 -8.4148698304624518e-08 0.0000000000000000e+00  0.0000000000000000e+00 0.0000000000000000e+00 0.0000000000000000e+00  1.4031643364909596e+00 -6.7802414329024688e-07 0.0000000000000000e+00  1.4999411850293958e+00 -1.2040827787502728e-06 0.0000000000000000e+00  1.1216410351000461e+00 -2.5867369575305023e-07 0.0000000000000000e+00  1.4064125741713920e+00 -3.8624577380218443e-07 0.0000000000000000e+00  6.5856966664288485e-01 -4.3989785987526709e-08 0.0000000000000000e+00  1.3930664976719371e+00 3.9162706982568645e-09 0.0000000000000000e+00  1.4994286255985552e+00 4.4871743254445629e-09 0.0000000000000000e+00  6.8374663430577398e-01 1.8934002047887154e-09 0.0000000000000000e+00  6.8374663712171335e-01 1.8175260793766350e-09 0.0000000000000000e+00  0.0000000000000000e+00 0.0000000000000000e+00 0.0000000000000000e+00  1.3878966563930841e+00 2.0447568280229445e-09 0.0000000000000000e+00  1.4999230808497905e+00 8.2890658187371748e-10 0.0000000000000000e+00  5.2278397683324873e-01 -7.2684820008666751e-10 0.0000000000000000e+00  5.2278397650709929e-01 8.0441756257951816e-10 0.0000000000000000e+00  0.0000000000000000e+00 0.0000000000000000e+00 0.0000000000000000e+00  1.0547575364883950e+00 2.8927561876923820e-09 0.0000000000000000e+00  1.3236895901725583e+00 -8.3587081302872365e-09 0.0000000000000000e+00  6.2110986422051895e-01 -1.7950480381168502e-08 0.0000000000000000e+00  6.2110984015870307e-01 -6.5604332925316961e-09 0.0000000000000000e+00  0.0000000000000000e+00 0.0000000000000000e+00 0.0000000000000000e+00  1.0081938564779971e+00 -1.2730180384202821e-08 0.0000000000000000e+00  1.3639553083558484e+00 -3.5604356715422728e-08 0.0000000000000000e+00  1.3943928412611426e+00 -1.1872843977125205e-07 0.0000000000000000e+00  1.4981010455794894e+00 -7.3664574153973472e-08 0.0000000000000000e+00  6.8302693785723645e-01 -5.0103668319313548e-04 0.0000000000000000e+00  6.8274788559023891e-01 1.7164843952882858e-04 0.0000000000000000e+00  0.0000000000000000e+00 0.0000000000000000e+00 0.0000000000000000e+00  1.4118397912468137e+00 -2.0179284354488289e-03 0.0000000000000000e+00  1.4193407336759492e+00 4.8519500160852143e-04 0.0000000000000000e+00  6.5070942763901085e-01 -8.7109819942576764e-08 0.0000000000000000e+00  6.5070930980994679e-01 -4.5354413693283973e-08 0.0000000000000000e+00  0.0000000000000000e+00 0.0000000000000000e+00 0.0000000000000000e+00  1.0976429413248272e+00 -1.0235323898724961e-07 0.0000000000000000e+00  1.4044876221622158e+00 -2.5411777503519208e-07 0.0000000000000000e+00  1.4050132284429402e+00 -4.7752836089765687e-07 0.0000000000000000e+00  1.4999986905687452e+00 -3.9744591196137551e-07 0.0000000000000000e+00  6.6254360491976438e-01 2.6837132748685425e-04 0.0000000000000000e+00  6.6292105269249491e-01 2.1151861865469770e-04 0.0000000000000000e+00  0.0000000000000000e+00 0.0000000000000000e+00 0.0000000000000000e+00  1.1471090137115638e+00 5.9282312847044676e-04 0.0000000000000000e+00  1.4130074006483950e+00 9.1477984787277948e-04 0.0000000000000000e+00  1.4088767577455643e+00 8.0505706482051850e-04 0.0000000000000000e+00  1.5000945228357363e+00 9.3590381735590038e-04 0.0000000000000000e+00  6.1566375737590917e-01 -2.4522033773022469e-07 0.0000000000000000e+00  6.1566338548562083e-01 -1.5211110364673335e-07 0.0000000000000000e+00  0.0000000000000000e+00 0.0000000000000000e+00 0.0000000000000000e+00  1.0939551878832061e+00 -4.0718172161899518e-07 0.0000000000000000e+00  1.3930571923168549e+00 -8.7053478194637194e-07 0