<?xml version="1.0"?>
<VTKFile type="UnstructuredGrid"  version="0.1"  >
<UnstructuredGrid>
<Piece  NumberOfPoints="10201" NumberOfCells="20000">
<Points>
<DataArray  type="Float32"  NumberOfComponents="3"  format="ascii">0 0 0  0.01 0 0  0.02 0 0  0.03 0 0  0.04 0 0  0.05 0 0  0.06 0 0  0.07 0 0  0.08 0 0  0.09 0 0  0.1 0 0  0.11 0 0  0.12 0 0  0.13 0 0  0.14 0 0  0.15 0 0  0.16 0 0  0.17 0 0  0.18 0 0  0.19 0 0  0.2 0 0  0.21 0 0  0.22 0 0  0.23 0 0  0.24 0 0  0.25 0 0  0.26 0 0  0.27 0 0  0.28 0 0  0.29 0 0  0.3 0 0  0.31 0 0  0.32 0 0  0.33 0 0  0.34 0 0  0.35 0 0  0.36 0 0  0.37 0 0  0.38 0 0  0.39 0 0  0.4 0 0  0.41 0 0  0.42 0 0  0.43 0 0  0.44 0 0  0.45 0 0  0.46 0 0  0.47 0 0  0.48 0 0  0.49 0 0  0.5 0 0  0.51 0 0  0.52 0 0  0.53 0 0  0.54 0 0  0.55 0 0  0.56 0 0  0.57 0 0  0.58 0 0  0.59 0 0  0.6 0 0  0.61 0 0  0.62 0 0  0.63 0 0  0.64 0 0  0.65 0 0  0.66 0 0  0.67 0 0  0.68 0 0  0.69 0 0  0.7 0 0  0.71 0 0  0.72 0 0  0.73 0 0  0.74 0 0  0.75 0 0  0.76 0 0  0.77 0 0  0.78 0 0  0.79 0 0  0.8 0 0  0.81 0 0  0.82 0 0  0.83 0 0  0.84 0 0  0.85 0 0  0.86 0 0  0.87 0 0  0.88 0 0  0.89 0 0  0.9 0 0  0.91 0 0  0.92 0 0  0.93 0 0  0.94 0 0  0.95 0 0  0.96 0 0  0.97 0 0  0.98 0 0  0.99 0 0  1 0 0  0 0.01 0  0.01 0.01 0  0.02 0.01 0  0.03 0.01 0  0.04 0.01 0  0.05 0.01 0  0.06 0.01 0  0.07 0.01 0  0.08 0.01 0  0.09 0.01 0  0.1 0.01 0  0.11 0.01 0  0.12 0.01 0  0.13 0.01 0  0.14 0.01 0  0.15 0.01 0  0.16 0.01 0  0.17 0.01 0  0.18 0.01 0  0.19 0.01 0  0.2 0.01 0  0.21 0.01 0  0.22 0.01 0  0.23 0.01 0  0.24 0.01 0  0.25 0.01 0  0.26 0.01 0  0.27 0.01 0  0.28 0.01 0  0.29 0.01 0  0.3 0.01 0  0.31 0.01 0  0.32 0.01 0  0.33 0.01 0  0.34 0.01 0  0.35 0.01 0  0.36 0.01 0  0.37 0.01 0  0.38 0.01 0  0.39 0.01 0  0.4 0.01 0  0.41 0.01 0  0.42 0.01 0  0.43 0.01 0  0.44 0.01 0  0.45 0.01 0  0.46 0.01 0  0.47 0.01 0  0.48 0.01 0  0.49 0.01 0  0.5 0.01 0  0.51 0.01 0  0.52 0.01 0  0.53 0.01 0  0.54 0.01 0  0.55 0.01 0  0.56 0.01 0  0.57 0.01 0  0.58 0.01 0  0.59 0.01 0  0.6 0.01 0  0.61 0.01 0  0.62 0.01 0  0.63 0.01 0  0.64 0.01 0  0.65 0.01 0  0.66 0.01 0  0.67 0.01 0  0.68 0.01 0  0.69 0.01 0  0.7 0.01 0  0.71 0.01 0  0.72 0.01 0  0.73 0.01 0  0.74 0.01 0  0.75 0.01 0  0.76 0.01 0  0.77 0.01 0  0.78 0.01 0  0.79 0.01 0  0.8 0.01 0  0.81 0.01 0  0.82 0.01 0  0.83 0.01 0  0.84 0.01 0  0.85 0.01 0  0.86 0.01 0  0.87 0.01 0  0.88 0.01 0  0.89 0.01 0  0.9 0.01 0  0.91 0.01 0  0.92 0.01 0  0.93 0.01 0  0.94 0.01 0  0.95 0.01 0  0.96 0.01 0  0.97 0.01 0  0.98 0.01 0  0.99 0.01 0  1 0.01 0  0 0.02 0  0.01 0.02 0  0.02 0.02 0  0.03 0.02 0  0.04 0.02 0  0.05 0.02 0  0.06 0.02 0  0.07 0.02 0  0.08 0.02 0  0.09 0.02 0  0.1 0.02 0  0.11 0.02 0  0.12 0.02 0  0.13 0.02 0  0.14 0.02 0  0.15 0.02 0  0.16 0.02 0  0.17 0.02 0  0.18 0.02 0  0.19 0.02 0  0.2 0.02 0  0.21 0.02 0  0.22 0.02 0  0.23 0.02 0  0.24 0.02 0  0.25 0.02 0  0.26 0.02 0  0.27 0.02 0  0.28 0.02 0  0.29 0.02 0  0.3 0.02 0  0.31 0.02 0  0.32 0.02 0  0.33 0.02 0  0.34 0.02 0  0.35 0.02 0  0.36 0.02 0  0.37 0.02 0  0.38 0.02 0  0.39 0.02 0  0.4 0.02 0  0.41 0.02 0  0.42 0.02 0  0.43 0.02 0  0.44 0.02 0  0.45 0.02 0  0.46 0.02 0  0.47 0.02 0  0.48 0.02 0  0.49 0.02 0  0.5 0.02 0  0.51 0.02 0  0.52 0.02 0  0.53 0.02 0  0.54 0.02 0  0.55 0.02 0  0.56 0.02 0  0.57 0.02 0  0.58 0.02 0  0.59 0.02 0  0.6 0.02 0  0.61 0.02 0  0.62 0.02 0  0.63 0.02 0  0.64 0.02 0  0.65 0.02 0  0.66 0.02 0  0.67 0.02 0  0.68 0.02 0  0.69 0.02 0  0.7 0.02 0  0.71 0.02 0  0.72 0.02 0  0.73 0.02 0  0.74 0.02 0  0.75 0.02 0  0.76 0.02 0  0.77 0.02 0  0.78 0.02 0  0.79 0.02 0  0.8 0.02 0  0.81 0.02 0  0.82 0.02 0  0.83 0.02 0  0.84 0.02 0  0.85 0.02 0  0.86 0.02 0  0.87 0.02 0  0.88 0.02 0  0.89 0.02 0  0.9 0.02 0  0.91 0.02 0  0.92 0.02 0  0.93 0.02 0  0.94 0.02 0  0.95 0.02 0  0.96 0.02 0  0.97 0.02 0  0.98 0.02 0  0.99 0.02 0  1 0.02 0  0 0.03 0  0.01 0.03 0  0.02 0.03 0  0.03 0.03 0  0.04 0.03 0  0.05 0.03 0  0.06 0.03 0  0.07 0.03 0  0.08 0.03 0  0.09 0.03 0  0.1 0.03 0  0.11 0.03 0  0.12 0.03 0  0.13 0.03 0  0.14 0.03 0  0.15 0.03 0  0.16 0.03 0  0.17 0.03 0  0.18 0.03 0  0.19 0.03 0  0.2 0.03 0  0.21 0.03 0  0.22 0.03 0  0.23 0.03 0  0.24 0.03 0  0.25 0.03 0  0.26 0.03 0  0.27 0.03 0  0.28 0.03 0  0.29 0.03 0  0.3 0.03 0  0.31 0.03 0  0.32 0.03 0  0.33 0.03 0  0.34 0.03 0  0.35 0.03 0  0.36 0.03 0  0.37 0.03 0  0.38 0.03 0  0.39 0.03 0  0.4 0.03 0  0.41 0.03 0  0.42 0.03 0  0.43 0.03 0  0.44 0.03 0  0.45 0.03 0  0.46 0.03 0  0.47 0.03 0  0.48 0.03 0  0.49 0.03 0  0.5 0.03 0  0.51 0.03 0  0.52 0.03 0  0.53 0.03 0  0.54 0.03 0  0.55 0.03 0  0.56 0.03 0  0.57 0.03 0  0.58 0.03 0  0.59 0.03 0  0.6 0.03 0  0.61 0.03 0  0.62 0.03 0  0.63 0.03 0  0.64 0.03 0  0.65 0.03 0  0.66 0.03 0  0.67 0.03 0  0.68 0.03 0  0.69 0.03 0  0.7 0.03 0  0.71 0.03 0  0.72 0.03 0  0.73 0.03 0  0.74 0.03 0  0.75 0.03 0  0.76 0.03 0  0.77 0.03 0  0.78 0.03 0  0.79 0.03 0  0.8 0.03 0  0.81 0.03 0  0.82 0.03 0  0.83 0.03 0  0.84 0.03 0  0.85 0.03 0  0.86 0.03 0  0.87 0.03 0  0.88 0.03 0  0.89 0.03 0  0.9 0.03 0  0.91 0.03 0  0.92 0.03 0  0.93 0.03 0  0.94 0.03 0  0.95 0.03 0  0.96 0.03 0  0.97 0.03 0  0.98 0.03 0  0.99 0.03 0  1 0.03 0  0 0.04 0  0.01 0.04 0  0.02 0.04 0  0.03 0.04 0  0.04 0.04 0  0.05 0.04 0  0.06 0.04 0  0.07 0.04 0  0.08 0.04 0  0.09 0.04 0  0.1 0.04 0  0.11 0.04 0  0.12 0.04 0  0.13 0.04 0  0.14 0.04 0  0.15 0.04 0  0.16 0.04 0  0.17 0.04 0  0.18 0.04 0  0.19 0.04 0  0.2 0.04 0  0.21 0.04 0  0.22 0.04 0  0.23 0.04 0  0.24 0.04 0  0.25 0.04 0  0.26 0.04 0  0.27 0.04 0  0.28 0.04 0  0.29 0.04 0  0.3 0.04 0  0.31 0.04 0  0.32 0.04 0  0.33 0.04 0  0.34 0.04 0  0.35 0.04 0  0.36 0.04 0  0.37 0.04 0  0.38 0.04 0  0.39 0.04 0  0.4 0.04 0  0.41 0.04 0  0.42 0.04 0  0.43 0.04 0  0.44 0.04 0  0.45 0.04 0  0.46 0.04 0  0.47 0.04 0  0.48 0.04 0  0.49 0.04 0  0.5 0.04 0  0.51 0.04 0  0.52 0.04 0  0.53 0.04 0  0.54 0.04 0  0.55 0.04 0  0.56 0.04 0  0.57 0.04 0  0.58 0.04 0  0.59 0.04 0  0.6 0.04 0  0.61 0.04 0  0.62 0.04 0  0.63 0.04 0  0.64 0.04 0  0.65 0.04 0  0.66 0.04 0  0.67 0.04 0  0.68 0.04 0  0.69 0.04 0  0.7 0.04 0  0.71 0.04 0  0.72 0.04 0  0.73 0.04 0  0.74 0.04 0  0.75 0.04 0  0.76 0.04 0  0.77 0.04 0  0.78 0.04 0  0.79 0.04 0  0.8 0.04 0  0.81 0.04 0  0.82 0.04 0  0.83 0.04 0  0.84 0.04 0  0.85 0.04 0  0.86 0.04 0  0.87 0.04 0  0.88 0.04 0  0.89 0.04 0  0.9 0.04 0  0.91 0.04 0  0.92 0.04 0  0.93 0.04 0  0.94 0.04 0  0.95 0.04 0  0.96 0.04 0  0.97 0.04 0  0.98 0.04 0  0.99 0.04 0  1 0.04 0  0 0.05 0  0.01 0.05 0  0.02 0.05 0  0.03 0.05 0  0.04 0.05 0  0.05 0.05 0  0.06 0.05 0  0.07 0.05 0  0.08 0.05 0  0.09 0.05 0  0.1 0.05 0  0.11 0.05 0  0.12 0.05 0  0.13 0.05 0  0.14 0.05 0  0.15 0.05 0  0.16 0.05 0  0.17 0.05 0  0.18 0.05 0  0.19 0.05 0  0.2 0.05 0  0.21 0.05 0  0.22 0.05 0  0.23 0.05 0  0.24 0.05 0  0.25 0.05 0  0.26 0.05 0  0.27 0.05 0  0.28 0.05 0  0.29 0.05 0  0.3 0.05 0  0.31 0.05 0  0.32 0.05 0  0.33 0.05 0  0.34 0.05 0  0.35 0.05 0  0.36 0.05 0  0.37 0.05 0  0.38 0.05 0  0.39 0.05 0  0.4 0.05 0  0.41 0.05 0  0.42 0.05 0  0.43 0.05 0  0.44 0.05 0  0.45 0.05 0  0.46 0.05 0  0.47 0.05 0  0.48 0.05 0  0.49 0.05 0  0.5 0.05 0  0.51 0.05 0  0.52 0.05 0  0.53 0.05 0  0.54 0.05 0  0.55 0.05 0  0.56 0.05 0  0.57 0.05 0  0.58 0.05 0  0.59 0.05 0  0.6 0.05 0  0.61 0.05 0  0.62 0.05 0  0.63 0.05 0  0.64 0.05 0  0.65 0.05 0  0.66 0.05 0  0.67 0.05 0  0.68 0.05 0  0.69 0.05 0  0.7 0.05 0  0.71 0.05 0  0.72 0.05 0  0.73 0.05 0  0.74 0.05 0  0.75 0.05 0  0.76 0.05 0  0.77 0.05 0  0.78 0.05 0  0.79 0.05 0  0.8 0.05 0  0.81 0.05 0  0.82 0.05 0  0.83 0.05 0  0.84 0.05 0  0.85 0.05 0  0.86 0.05 0  0.87 0.05 0  0.88 0.05 0  0.89 0.05 0  0.9 0.05 0  0.91 0.05 0  0.92 0.05 0  0.93 0.05 0  0.94 0.05 0  0.95 0.05 0  0.96 0.05 0  0.97 0.05 0  0.98 0.05 0  0.99 0.05 0  1 0.05 0  0 0.06 0  0.01 0.06 0  0.02 0.06 0  0.03 0.06 0  0.04 0.06 0  0.05 0.06 0  0.06 0.06 0  0.07 0.06 0  0.08 0.06 0  0.09 0.06 0  0.1 0.06 0  0.11 0.06 0  0.12 0.06 0  0.13 0.06 0  0.14 0.06 0  0.15 0.06 0  0.16 0.06 0  0.17 0.06 0  0.18 0.06 0  0.19 0.06 0  0.2 0.06 0  0.21 0.06 0  0.22 0.06 0  0.23 0.06 0  0.24 0.06 0  0.25 0.06 0  0.26 0.06 0  0.27 0.06 0  0.28 0.06 0  0.29 0.06 0  0.3 0.06 0  0.31 0.06 0  0.32 0.06 0  0.33 0.06 0  0.34 0.06 0  0.35 0.06 0  0.36 0.06 0  0.37 0.06 0  0.38 0.06 0  0.39 0.06 0  0.4 0.06 0  0.41 0.06 0  0.42 0.06 0  0.43 0.06 0  0.44 0.06 0  0.45 0.06 0  0.46 0.06 0  0.47 0.06 0  0.48 0.06 0  0.49 0.06 0  0.5 0.06 0  0.51 0.06 0  0.52 0.06 0  0.53 0.06 0  0.54 0.06 0  0.55 0.06 0  0.56 0.06 0  0.57 0.06 0  0.58 0.06 0  0.59 0.06 0  0.6 0.06 0  0.61 0.06 0  0.62 0.06 0  0.63 0.06 0  0.64 0.06 0  0.65 0.06 0  0.66 0.06 0  0.67 0.06 0  0.68 0.06 0  0.69 0.06 0  0.7 0.06 0  0.71 0.06 0  0.72 0.06 0  0.73 0.06 0  0.74 0.06 0  0.75 0.06 0  0.76 0.06 0  0.77 0.06 0  0.78 0.06 0  0.79 0.06 0  0.8 0.06 0  0.81 0.06 0  0.82 0.06 0  0.83 0.06 0  0.84 0.06 0  0.85 0.06 0  0.86 0.06 0  0.87 0.06 0  0.88 0.06 0  0.89 0.06 0  0.9 0.06 0  0.91 0.06 0  0.92 0.06 0  0.93 0.06 0  0.94 0.06 0  0.95 0.06 0  0.96 0.06 0  0.97 0.06 0  0.98 0.06 0  0.99 0.06 0  1 0.06 0  0 0.07 0  0.01 0.07 0  0.02 0.07 0  0.03 0.07 0  0.04 0.07 0  0.05 0.07 0  0.06 0.07 0  0.07 0.07 0  0.08 0.07 0  0.09 0.07 0  0.1 0.07 0  0.11 0.07 0  0.12 0.07 0  0.13 0.07 0  0.14 0.07 0  0.15 0.07 0  0.16 0.07 0  0.17 0.07 0  0.18 0.07 0  0.19 0.07 0  0.2 0.07 0  0.21 0.07 0  0.22 0.07 0  0.23 0.07 0  0.24 0.07 0  0.25 0.07 0  0.26 0.07 0  0.27 0.07 0  0.28 0.07 0  0.29 0.07 0  0.3 0.07 0  0.31 0.07 0  0.32 0.07 0  0.33 0.07 0  0.34 0.07 0  0.35 0.07 0  0.36 0.07 0  0.37 0.07 0  0.38 0.07 0  0.39 0.07 0  0.4 0.07 0  0.41 0.07 0  0.42 0.07 0  0.43 0.07 0  0.44 0.07 0  0.45 0.07 0  0.46 0.07 0  0.47 0.07 0  0.48 0.07 0  0.49 0.07 0  0.5 0.07 0  0.51 0.07 0  0.52 0.07 0  0.53 0.07 0  0.54 0.07 0  0.55 0.07 0  0.56 0.07 0  0.57 0.07 0  0.58 0.07 0  0.59 0.07 0  0.6 0.07 0  0.61 0.07 0  0.62 0.07 0  0.63 0.07 0  0.64 0.07 0  0.65 0.07 0  0.66 0.07 0  0.67 0.07 0  0.68 0.07 0  0.69 0.07 0  0.7 0.07 0  0.71 0.07 0  0.72 0.07 0  0.73 0.07 0  0.74 0.07 0  0.75 0.07 0  0.76 0.07 0  0.77
[...]
<PointData  Vectors="u"> 
<DataArray  type="Float32"  Name="u"  NumberOfComponents="3" format="ascii">0.000000e+00 0.000000e+00 0.000000e+00  0.000000e+00 0.000000e+00 0.000000e+00  0.000000e+00 0.000000e+00 0.000000e+00  0.000000e+00 0.000000e+00 0.000000e+00  0.000000e+00 0.000000e+00 0.000000e+00  0.000000e+00 0.000000e+00 0.000000e+00  0.000000e+00 0.000000e+00 0.000000e+00  0.000000e+00 0.000000e+00 0.000000e+00  0.000000e+00 0.000000e+00 0.000000e+00  0.000000e+00 0.000000e+00 0.000000e+00  0.000000e+00 0.000000e+00 0.000000e+00  0.000000e+00 0.000000e+00 0.000000e+00  0.000000e+00 0.000000e+00 0.000000e+00  0.000000e+00 0.000000e+00 0.000000e+00  0.000000e+00 0.000000e+00 0.000000e+00  0.000000e+00 0.000000e+00 0.000000e+00  0.000000e+00 0.000000e+00 0.000000e+00  0.000000e+00 0.000000e+00 0.000000e+00  0.000000e+00 0.000000e+00 0.000000e+00  0.000000e+00 0.000000e+00 0.000000e+00  0.000000e+00 0.000000e+00 0.000000e+00  0.000000e+00 0.000000e+00 0.000000e+00  0.000000e+00 0.000000e+00 0.000000e+00  0.000000e+00 0.000000e+00 0.000000e+00  0.000000e+00 0.000000e+00 0.000000e+00  0.000000e+00 0.000000e+00 0.000000e+00  0.000000e+00 0.000000e+00 0.000000e+00  0.000000e+00 0.000000e+00 0.000000e+00  0.000000e+00 0.000000e+00 0.000000e+00  0.000000e+00 0.000000e+00 0.000000e+00  0.000000e+00 0.000000e+00 0.000000e+00  0.000000e+00 0.000000e+00 0.000000e+00  0.000000e+00 0.000000e+00 0.000000e+00  0.000000e+00 0.000000e+00 0.000000e+00  0.000000e+00 0.000000e+00 0.000000e+00  0.000000e+00 0.000000e+00 0.000000e+00  0.000000e+00 0.000000e+00 0.000000e+00  0.000000e+00 0.000000e+00 0.000000e+00  0.000000e+00 0.000000e+00 0.000000e+00  0.000000e+00 0.000000e+00 0.000000e+00  0.000000e+00 0.000000e+00 0.000000e+00  0.000000e+00 0.000000e+00 0.000000e+00  0.000000e+00 0.000000e+00 0.000000e+00  0.000000e+00 0.000000e+00 0.000000e+00  0.000000e+00 0.000000e+00 0.000000e+00  0.000000e+00 0.000000e+00 0.000000e+00  0.000000e+00 0.000000e+00 0.000000e+00  0.000000e+00 0.000000e+00 0.000000e+00  0.000000e+00 0.000000e+00 0.000000e+00  0.000000e+00 0.000000e+00 0.000000e+00  0.000000e+00 0.000000e+00 0.000000e+00  0.000000e+00 0.000000e+00 0.000000e+00  0.000000e+00 0.000000e+00 0.000000e+00  0.000000e+00 0.000000e+00 0.000000e+00  0.000000e+00 0.000000e+00 0.000000e+00  0.000000e+00 0.000000e+00 0.000000e+00  0.000000e+00 0.000000e+00 0.000000e+00  0.000000e+00 0.000000e+00 0.000000e+00  0.000000e+00 0.000000e+00 0.000000e+00  0.000000e+00 0.000000e+00 0.000000e+00  0.000000e+00 0.000000e+00 0.000000e+00  0.000000e+00 0.000000e+00 0.000000e+00  0.000000e+00 0.000000e+00 0.000000e+00  0.000000e+00 0.000000e+00 0.000000e+00  0.000000e+00 0.000000e+00 0.000000e+00  0.000000e+00 0.000000e+00 0.000000e+00  0.000000e+00 0.000000e+00 0.000000e+00  0.000000e+00 0.000000e+00 0.000000e+00  0.000000e+00 0.000000e+00 0.000000e+00  0.000000e+00 0.000000e+00 0.000000e+00  0.000000e+00 0.000000e+00 0.000000e+00  0.000000e+00 0.000000e+00 0.000000e+00  0.000000e+00 0.000000e+00 0.000000e+00  0.000000e+00 0.000000e+00 0.000000e+00  0.000000e+00 0.000000e+00 0.000000e+00  0.000000e+00 0.000000e+00 0.000000e+00  0.000000e+00 0.000000e+00 0.000000e+00  0.000000e+00 0.000000e+00 0.000000e+00  0.000000e+00 0.000000e+00 0.000000e+00  0.000000e+00 0.000000e+00 0.000000e+00  0.000000e+00 0.000000e+00 0.000000e+00  0.000000e+00 0.000000e+00 0.000000e+00  0.000000e+00 0.000000e+00 0.000000e+00  0.000000e+00 0.000000e+00 0.000000e+00  0.000000e+00 0.000000e+00 0.000000e+00  0.000000e+00 0.000000e+00 0.000000e+00  0.000000e+00 0.000000e+00 0.000000e+00  0.000000e+00 0.000000e+00 0.000000e+00  0.000000e+00 0.000000e+00 0.000000e+00  0.000000e+00 0.000000e+00 0.000000e+00  0.000000e+00 0.000000e+00 0.000000e+00  0.000000e+00 0.000000e+00 0.000000e+00  0.000000e+00 0.000000e+00 0.000000e+00  0.000000e+00 0.000000e+00 0.000000e+00  0.000000e+00 0.000000e+00 0.000000e+00  0.000000e+00 0.000000e+00 0.000000e+00  0.000000e+00 0.000000e+00 0.000000e+00  0.000000e+00 0.000000e+00 0.000000e+00  0.000000e+00 0.000000e+00 0.000000e+00  0.000000e+00 0.000000e+00 0.000000e+00  0.000000e+00 0.000000e+00 0.000000e+00  0.000000e+00 0.000000e+00 0.000000e+00  4.753946e-06 -5.570090e-06 0.000000e+00  1.668832e-05 -7.657895e-06 0.000000e+00  2.931173e-05 -6.954721e-06 0.000000e+00  3.856658e-05 -4.270000e-06 0.000000e+00  4.146661e-05 -4.101308e-07 0.000000e+00  3.629604e-05 4.112778e-06 0.000000e+00  2.207858e-05 8.972627e-06 0.000000e+00  -1.651300e-06 1.395314e-05 0.000000e+00  -3.501144e-05 1.890950e-05 0.000000e+00  -7.788095e-05 2.374246e-05 0.000000e+00  -1.299716e-04 2.838299e-05 0.000000e+00  -1.908769e-04 3.278262e-05 0.000000e+00  -2.601062e-04 3.690724e-05 0.000000e+00  -3.371091e-04 4.073304e-05 0.000000e+00  -4.212930e-04 4.424371e-05 0.000000e+00  -5.120370e-04 4.742856e-05 0.000000e+00  -6.087012e-04 5.028119e-05 0.000000e+00  -7.106348e-04 5.279855e-05 0.000000e+00  -8.171824e-04 5.498018e-05 0.000000e+00  -9.276884e-04 5.682778e-05 0.000000e+00  -1.041501e-03 5.834474e-05 0.000000e+00  -1.157977e-03 5.953589e-05 0.000000e+00  -1.276481e-03 6.040726e-05 0.000000e+00  -1.396392e-03 6.096587e-05 0.000000e+00  -1.517102e-03 6.121959e-05 0.000000e+00  -1.638018e-03 6.117703e-05 0.000000e+00  -1.758567e-03 6.084744e-05 0.000000e+00  -1.878191e-03 6.024057e-05 0.000000e+00  -1.996354e-03 5.936668e-05 0.000000e+00  -2.112539e-03 5.823639e-05 0.000000e+00  -2.226251e-03 5.686070e-05 0.000000e+00  -2.337016e-03 5.525087e-05 0.000000e+00  -2.444383e-03 5.341842e-05 0.000000e+00  -2.547925e-03 5.137510e-05 0.000000e+00  -2.647234e-03 4.913281e-05 0.000000e+00  -2.741931e-03 4.670361e-05 0.000000e+00  -2.831658e-03 4.409967e-05 0.000000e+00  -2.916080e-03 4.133326e-05 0.000000e+00  -2.994890e-03 3.841674e-05 0.000000e+00  -3.067801e-03 3.536251e-05 0.000000e+00  -3.134554e-03 3.218303e-05 0.000000e+00  -3.194913e-03 2.889077e-05 0.000000e+00  -3.248668e-03 2.549824e-05 0.000000e+00  -3.295632e-03 2.201798e-05 0.000000e+00  -3.335644e-03 1.846251e-05 0.000000e+00  -3.368567e-03 1.484436e-05 0.000000e+00  -3.394289e-03 1.117608e-05 0.000000e+00  -3.412725e-03 7.470200e-06 0.000000e+00  -3.423811e-03 3.739260e-06 0.000000e+00  -3.427511e-03 -4.203243e-09 0.000000e+00  -3.423811e-03 -3.747655e-06 0.000000e+00  -3.412725e-03 -7.478559e-06 0.000000e+00  -3.394290e-03 -1.118438e-05 0.000000e+00  -3.368568e-03 -1.485258e-05 0.000000e+00  -3.335645e-03 -1.847062e-05 0.000000e+00  -3.295633e-03 -2.202596e-05 0.000000e+00  -3.248670e-03 -2.550607e-05 0.000000e+00  -3.194915e-03 -2.889841e-05 0.000000e+00  -3.134556e-03 -3.219045e-05 0.000000e+00  -3.067803e-03 -3.536971e-05 0.000000e+00  -2.994892e-03 -3.842367e-05 0.000000e+00  -2.916083e-03 -4.133990e-05 0.000000e+00  -2.831660e-03 -4.410598e-05 0.000000e+00  -2.741934e-03 -4.670957e-05 0.000000e+00  -2.647237e-03 -4.913838e-05 0.000000e+00  -2.547928e-03 -5.138026e-05 0.000000e+00  -2.444387e-03 -5.342312e-05 0.000000e+00  -2.337019e-03 -5.525507e-05 0.000000e+00  -2.226254e-03 -5.686437e-05 0.000000e+00  -2.112542e-03 -5.823949e-05 0.000000e+00  -1.996357e-03 -5.936916e-05 0.000000e+00  -1.878195e-03 -6.024240e-05 0.000000e+00  -1.758571e-03 -6.084855e-05 0.000000e+00  -1.638022e-03 -6.117739e-05 0.000000e+00  -1.517106e-03 -6.121913e-05 0.000000e+00  -1.396396e-03 -6.096454e-05 0.000000e+00  -1.276485e-03 -6.040500e-05 0.000000e+00  -1.157981e-03 -5.953263e-05 0.000000e+00  -1.041505e-03 -5.834040e-05 0.000000e+00  -9.276916e-04 -5.682228e-05 0.000000e+00  -8.171853e-04 -5.497343e-05 0.000000e+00  -7.106373e-04 -5.279046e-05 0.000000e+00  -6.087032e-04 -5.027165e-05 0.000000e+00  -5.120383e-04 -4.741745e-05 0.000000e+00  -4.212935e-04 -4.423092e-05 0.000000e+00  -3.371085e-04 -4.071843e-05 0.000000e+00  -2.601043e-04 -3.689066e-05 0.000000e+00  -1.908733e-04 -3.276394e-05 0.000000e+00  -1.299657e-04 -2.836209e-05 0.000000e+00  -7.787219e-05 -2.371929e-05 0.000000e+00  -3.499888e-05 -1.888411e-05 0.000000e+00  -1.633629e-06 -1.392586e-05 0.000000e+00  2.210321e-05 -8.944343e-06 0.000000e+00  3.633062e-05 -4.085630e-06 0.000000e+00  4.151513e-05 4.320067e-07 0.000000e+00  3.863482e-05 4.274138e-06 0.000000e+00  2.942906e-05 6.916675e-06 0.000000e+00  1.680798e-05 7.555634e-06 0.000000e+00  5.070616e-06 5.070308e-06 0.000000e+00  0.000000e+00 0.000000e+00 0.000000e+00  0.000000e+00 0.000000e+00 0.000000e+00  7.587745e-06 -1.683687e-05 0.000000e+00  2.250425e-05 -2.271325e-05 0.000000e+00  3.645208e-05 -1.917144e-05 0.000000e+00  4.327923e-05 -9.127050e-06 0.000000e+00  3.860357e-05 5.067760e-06 0.000000e+00  1.954725e-05 2.176308e-05 0.000000e+00  -1.568125e-05 3.981441e-05 0.000000e+00  -6.803353e-05 5.843071e-05 0.000000e+00  -1.378558e-04 7.705987e-05 0.000000e+00  -2.250512e-04 9.531155e-05 0.000000e+00  -3.291977e-04 1.129070e-04 0.000000e+00  -4.496352e-04 1.296460e-04 0.000000e+00  -5.855278e-04 1.453843e-04 0.000000e+00  -7.359106e-04 1.600186e-04 0.000000e+00  -8.997251e-04 1.734761e-04 0.000000e+00  -1.075845e-03 1.857073e-04 0.000000e+00  -1.263100e-03 1.966802e-04 0.000000e+00  -1.460285e-03 2.063770e-04 0.000000e+00  -1.666183e-03 2.147907e-04 0.000000e+00  -1.879566e-03 2.219236e-04 0.000000e+00  -2.099212e-03 2.277851e-04 0.000000e+00  -2.323903e-03 2.323909e-04 0.000000e+00  -2.552440e-03 2.357618e-04 0.000000e+00  -2.783642e-03 2.379226e-04 0.000000e+00  -3.016352e-03 2.389020e-04 0.000000e+00  -3.249441e-03 2.387320e-04 0.000000e+00  -3.481811e-03 2.374469e-04 0.000000e+00  -3.712396e-03 2.350837e-04 0.000000e+00  -3.940167e-03 2.316812e-04 0.000000e+00  -4.164133e-03 2.272799e-04 0.000000e+00  -4.383342e-03 2.219219e-04 0.000000e+00  -4.596881e-03 2.156504e-04 0.000000e+00  -4.803883e-03 2.085100e-04 0.000000e+00  -5.003521e-03 2.005460e-04 0.000000e+00  -5.195014e-03 1.918043e-04 0.000000e+00  -5.377625e-03 1.823320e-04 0.000000e+00  -5.550664e-03 1.721761e-04 0.000000e+00  -5.713484e-03 1.613846e-04 0.000000e+00  -5.865488e-03 1.500054e-04 0.000000e+00  -6.006125e-03 1.380871e-04 0.000000e+00  -6.134892e-03 1.256781e-04 0.000000e+00  -6.251330e-03 1.128273e-04 0.000000e+00  -6.355033e-03 9.958365e-05 0.000000e+00  -6.445639e-03 8.599606e-05 0.000000e+00  -6.522835e-03 7.211363e-05 0.000000e+00  -6.586357e-03 5.798546e-05 0.000000e+00  -6.635988e-03 4.366068e-05 0.000000e+00  -6.671559e-03 2.918844e-05 0.000000e+00  -6.692949e-03 1.461789e-05 0.000000e+00  -6.700088e-03 -1.816828e-09 0.000000e+00  -6.692950e-03 -1.462152e-05 0.000000e+00  -6.671559e-03 -2.919205e-05 0.000000e+00  -6.635988e-03 -4.366426e-05 0.000000e+00  -6.586358e-03 -5.798899e-05 0.000000e+00  -6.522836e-03 -7.211711e-05 0.000000e+00  -6.445640e-03 -8.599947e-05 0.000000e+00  -6.355034e-03 -9.958697e-05 0.000000e+00  -6.251332e-03 -1.128306e-04 0.000000e+00  -6.134893e-03 -1.256812e-04 0.000000e+00  -6.006127e-03 -1.380901e-04 0.000000e+00  -5.865490e-03 -1.500083e-04 0.000000e+00  -5.713485e-03 -1.613873e-04 0.000000e+00  -5.550665e-03 -1.721787e-04 0.000000e+00  -5.377627e-03 -1.823343e-04 0.000000e+00  -5.195016e-03 -1.918065e-04 0.000000e+00  -5.003523e-03 -2.005479e-04 0.000000e+00  -4.803885e-03 -2.085118e-04 0.000000e+00  -4.596883e-03 -2.156519e-04 0.000000e+00  -4.383344e-03 -2.219231e-04 0.000000e+00  -4.164135e-03 -2.272809e-04 0.000000e+00  -3.940169e-03 -2.316819e-04 0.000000e+00  -3.712398e-03 -2.350841e-04 0.000000e+00  -3.481812e-03 -2.374470e-04 0.000000e+00  -3.249443e-03 -2.387317e-04 0.000000e+00  -3.016354e-03 -2.389014e-04 0.000000e+00  -2.783643e-03 -2.379215e-04 0.000000e+00  -2.552441e-03 -2.357603e-04 0.000000e+00  -2.323903e-03 -2.323891e-04 0.000000e+00  -2.099211e-03 -2.277829e-04 0.000000e+00  -1.879566e-03 -2.219209e-04 0.000000e+00  -1.666181e-03 -2.147875e-04 0.000000e+00  -1.460283e-03 -2.063734e-04 0.000000e+00  -1.263096e-03 -1.966762e-04 0.000000e+00  -1.075841e-03 -1.857029e-04 0.000000e+00  -8.997193e-04 -1.734713e-04 0.000000e+00  -7.359030e-04 -1.600135e-04 0.000000e+00  -5.855180e-04 -1.453790e-04 0.000000e+00  -4.496228e-04 -1.296408e-04 0.000000e+00  -3.291820e-04 -1.129022e-04 0.000000e+00  -2.250313e-04 -9.530763e-05 0.000000e+00  -1.378309e-04 -7.705769e-05 0.000000e+00  -6.800205e-05 -5.843158e-05 0.000000e+00  -1.564147e-05 -3.982039e-05 0.000000e+00  1.959757e-05 -2.177763e-05 0.000000e+00  3.866903e-05 -5.096010e-06 0.000000e+00  4.335633e-05 9.077466e-06 0.000000e+00  3.656231e-05 1.908501e-05 0.000000e+00  2.263323e-05 2.260024e-05 0.000000e+00  7.569227e-06 1.681643e-05 0.000000e+00  0.000000e+00 0.000000e+00 0.000000e+00  0.000000e+00 0.000000e+00 0.000000e+00  6.947315e-06 -2.961779e-05 0.000000e+00  1.920311e-05 -3.670502e-05 0.000000e+00  2.696100e-05 -2.684969e-05 0.000000e+00  2.334426e-05 -4.974206e-06 0.000000e+00  3.385485e-06 2.498403e-05 0.000000e+00  -3.640829e-05 6.004100e-05 0.000000e+00  -9.831396e-05 9.801123e-05 0.000000e+00  -1.836334e-04 1.373119e-04 0.000000e+00  -2.929146e-04 1.767938e-04 0.000000e+00  -4.261215e-04 2.156189e-04 0.000000e+00  -5.827716e-04 2.531725e-04 0.000000e+00  -7.620414e-04 2.890025e-04 0.000000e+00  -9.628480e-04 3.227765e-04 0.000000e+00  -1.183912e-03 3.542510e-04 0.000000e+00  -1.423806e-03 3.832502e-04 0.000000e+00  -1.680995e-03 4.096504e-04 0.000000e+00  -1.953864e-03 4.333683e-04 0.000000e+00  -2.240745e-03 4.543529e-04 0.000000e+00  -2.539934e-03 4.725791e-04 0.000000e+00  -2.849711e-03 4.880425e-04 0.000000e+00  -3.168349e-03 5.007563e-04 0.000000e+00  -3.494128e-03 5.107479e-04 0.000000e+00  -3.825343e-03 5.180570e-04 0.000000e+00  -4.160314e-03 5.227334e-04 0.000000e+00  -4.497389e-03 5.248355e-04 0.000000e+00  -4.834953e-03 5.244294e-04 0.000000e+00  -5.171434e-03 5.215876e-04 0.000000e+00  -5.505301e-03 5.163881e-04 0.000000e+00  -5.835077e-03 5.089136e-04 0.000000e+00  -6.159333e-03 4.992513e-04 0.000000e+00  -6.476698e-03 4.874915e-04 0.000000e+00  -6.785857e-03 4.737279e-04 0.000000e+00  -7.085555e-03 4.580568e-04 0.000000e+00  -7.374600e-03 4.405767e-04 0.000000e+00  -7.651860e-03 4.213880e-04 0.000000e+00  -7.916269e-03 4.005927e-04 0.000000e+00  -8.166826e-03 3.782942e-04 0.000000e+00  -8.402598e-03 3.545969e-04 0.000000e+00  -8.622716e-03 3.296064e-04 0.000000e+00  -8.826381e-03 3.034287e-04 0.000000e+00  -9.012862e-03 2.761705e-04 0.000000e+00  -9.181496e-03 2.479391e-04 0.000000e+00  -9.331690e-03 2.188420e-04 0.000000e+00  -9.462919e-03 1.889870e-04 0.000000e+00  -9.574730e-03 1.584821e-04 0.000000e+00  -9.666736e-03 1.274355e-04 0.000000e+00  -9.738623e-03 9.595548e-05 0.000000e+00  -9.790147e-03 6.415028e-05 0.000000e+00  -9.821131e-03 3.212829e-05 0.000000e+00  -9.831470e-03 -2.089550e-09 0.000000e+00  -9.821131e-03 -3.213246e-05 0.000000e+00  -9.790147e-03 -6.415443e-05 0.000000e+00  -9.738624e-03 -9.595960e-05 0.000000e+00  -9.666736e-03 -1.274396e-04 0.000000e+00  -9.574730e-03 -1.584861e-04 0.000000e+00  -9.462920e-03 -1.889909e-04 0.000000e+00  -9.331691e-03 -2.188458e-04 0.000000e+00  -9.181497e-03 -2.479428e-04 0.000000e+00  -9.012863e-03 -2.761741e-04 0.000000e+00  -8.826382e-03 -3.034321e-04 0.000000e+00  -8.622717e-03 -3.296097e-04 0.000000e+00  -8.402598e-03 -3.546001e-04 0.000000e+00  -8.166827e-03 -3.782971e-04 0.000000e+00  -7.916269e-03 -4.005954e-04 0.000000e+00  -7.651860e-03 -4.213905e-04 0.000000e+00  -7.374601e-03 -4.405790e-04 0.000000e+00  -7.085556e-03 -4.580589e-04 0.000000e+00  -6.785858e-03 -4.737297e-04 0.000000e+00  -6.476698e-03 -4.874930e-04 0.000000e+00  -6.159333e-03 -4.992525e-04 0.000000e+00  -5.835077e-03 -5.089145e-04 0.000000e+00  -5.505301e-03 -5.163886e-04 0.000000e+00  -5.171433e-03 -5.215878e-04 0.000000e+00  -4.834953e-03 -5.244293e-04 0.000000e+00  -4.497388e-03 -5.248350e-04 0.000000e+00  -4.160312e-03 -5.227325e-04 0.000000e+00  -3.825341e-03 -5.180557e-04 0.000000e+00  -3.494125e-03 -5.107463e-04 0.000000e+00  -3.168346e-03 -5.007542e-04 0.000000e+00  -2.849707e-03 -4.880400e-04 0.000000e+00  -2.539929e-03 -4.725762e-04 0.000000e+00  -2.240739e-03 -4.543497e-04 0.000000e+00  -1.953857e-03 -4.333648e-04 0.000000e+00  -1.680986e-03 -4.096466e-04 0.000000e+00  -1.423795e-03 -3.832463e-04 0.000000e+00  -1.183898e-03 -3.542471e-04 0.000000e+00  -9.628320e-04 -3.227729e-04 0.000000e+00  -7.620223e-04 -2.889995e-04 0.000000e+00  -5.827487e-04 -2.531705e-04 0.000000e+00  -4.260941e-04 -2.156187e-04 0.000000e+00  -2.928817e-04 -1.767965e-04 0.000000e+00  -1.835941e-04 -1.373189e-04 0.000000e+00  -9.826678e-05 -9.802467e-05 0.000000e+00  -3.635246e-05 -6.006391e-05 0.000000e+00  3.452673e-06 -2.502112e-05 0.000000e+00  2.342098e-05 4.918848e-06 0.000000e+00  2.703991e-05 2.677105e-05 0.000000e+00  1.927709e-05 3.658436e-05 0.000000e+00  6.977080e-06 2.950004e-05 0.000000e+00  0.000000e+00 0.000000e+00 0.000000e+00  0.000000e+00 0.000000e+00 0.000000e+00  4.386208e-06 -3.893241e-05 0.000000e+00  9.530285e-06 -4.368895e-05 0.000000e+00  5.673927e-06 -2.334999e-05 0.000000e+00  -1.416449e-05 1.499181e-05 0.000000e+00  -5.514847e-05 6.573175e-05 0.000000e+00  -1.209770e-04 1.245378e-04 0.000000e+00  -2.141329e-04 1.881250e-04 0.000000e+00  -3.360967e-04 2.540215e-04 0.000000e+00  -4.875288e-04 3.203727e-04 0.000000e+00  -6.684279e-04 3.857869e-04 0.000000e+00  -8.782657e-04 4.492179e-04 0.000000e+00  -1.116097e-03 5.098790e-04 0.000000e+00  -1.380649e-03 5.671796e-04 0.000000e+00  -1.670396e-03 6.206787e-04 0.000000e+00  -1.983612e-03 6.700511e-04 0.000000e+00  -2.318425e-03 7.150620e-04 0.000000e+00  -2.672850e-03 7.555482e-04 0.000000e+00  -3.044823e-03 7.914038e-04 0.000000e+00  -3.432225e-03 8.225694e-04 0.000000e+00  -3.832906e-03 8.490240e-04 0.000000e+00  -4.244698e-03 8.707777e-04 0.000000e+00  -4.665438e-03 8.878675e-04 0.000000e+00  -5.092972e-03 9.003524e-04 0.000000e+00  -5.525172e-03 9.083105e-04 0.000000e+00  -5.959944e-03 9.118361e-04 0.000000e+00  -6.395235e-03 9.110374e-04 0.000000e+00  -6.829040e-03 9.060344e-04 0.000000e+00  -7.259409e-03 8.969579e-04 0.000000e+00  -7.684453e-03 8.839473e-04 0.000000e+00  -8.102347e-03 8.671500e-04 0.000000e+00  -8.511333e-03 8.467200e-04 0.000000e+00  -8.909726e-03 8.228173e-04 0.000000e+00  -9.295918e-03 7.956065e-04 0.000000e+00  -9.668374e-03 7.652569e-04 0.000000e+00  -1.002564e-02 7.319413e-04 0.000000e+00  -1.036635e-02 6.958355e-04 0.000000e+00  -1.068922e-02 6.571179e-04 0.000000e+00  -1.099303e-02 6.159694e-04 0.000000e+00  -1.127668e-02 5.725722e-04 0.000000e+00  -1.153913e-02 5.271103e-04 0.000000e+00  -1.177944e-02 4.797688e-04 0.000000e+00  -1.199675e-02 4.307339e-04 0.000000e+00  -1.219031e-02 3.801922e-04 0.000000e+00  -1.235942e-02 3.283312e-04 0.000000e+00  -1.250352e-02 2.753388e-04 0.000000e+00  -1.262209e-02 2.214032e-04 0.000000e+00  -1.271474e-02 1.667126e-04 0.000000e+00  -1.278114e-02 1.114558e-04 0.000000e+00  -1.282107e-02 5.582147e-05 0.000000e+00  -1.283440e-02 -1.692248e-09 0.000000e+00  -1.282107e-02 -5.582485e-05 0.000000e+00  -1.278114e-02 -1.114592e-04 0.000000e+00  -1.271474e-02 -1.667160e-04 0.000000e+00  -1.262209e-02 -2.214065e-04 0.000000e+00  -1.250352e-02 -2.753421e-04 0.000000e+00  -1.235942e-02 -3.283344e-04 0.000000e+00  -1.219031e-02 -3.801953e-04 0.000000e+00  -1.199675e-02 -4.307368e-04 0.000000e+00  -1.177944e-02 -4.797717e-04 0.000000e+00  -1.153913e-02 -5.271130e-04 0.000000e+00  -1.127668e-02 -5.725748e-04 0.000000e+00  -1.099303e-02 -6.159718e-04 0.000000e+00  -1.068922e-02 -6.571203e-04 0.000000e+00  -1.036635e-02 -6.958376e-04 0.000000e+00  -1.002564e-02 -7.319433e-04 0.000000e+00  -9.668373e-03 -7.652587e-04 0.000000e+00  -9.295917e-03 -7.956081e-04 0.000000e+00  -8.909726e-03 -8.228187e-04 0.000000e+00  -8.511332e-03 -8.467212e-04 0.000000e+00  -8.102346e-03 -8.671510e-04 0.000000e+00  -7.684452e-03 -8.839481e-04 0.000000e+00  -7.259407e-03 -8.969584e-04 0.000000e+00  -6.829037e-03 -9.060347e-04 0.000000e+00  -6.395232e-03 -9.110374e-04 0.000000e+00  -5.959941e-03 -9.118359e-04 0.000000e+00  -5.525168e-03 -9.083101e-04 0.000000e+00  -5.092967e-03 -9.003518e-04 0.000000e+00  -4.665432e-03 -8.878666e-04 0.000000e+00  -4.244692e-03 -8.707767e-04 0.000000e+00  -3.832898e-03 -8.4