<?xml version="1.0"?>
<VTKFile type="UnstructuredGrid"  version="0.1"  >
<UnstructuredGrid>
<Piece  NumberOfPoints="525" NumberOfCells="924">
<Points>
<DataArray  type="Float64"  NumberOfComponents="3"  format="ascii">0 0 0  2.2 0 0  2.2 0.41 0  0 0.41 0  0.15 0.2 0  0.25 0.2 0  0.2 0.15 0  0.2 0.25 0  0.104762 0 0  0.209524 0 0  0.314286 0 0  0.419048 0 0  0.52381 0 0  0.628571 0 0  0.733333 0 0  0.838095 0 0  0.9428569999999999 0 0  1.04762 0 0  1.15238 0 0  1.25714 0 0  1.3619 0 0  1.46667 0 0  1.57143 0 0  1.67619 0 0  1.78095 0 0  1.88571 0 0  1.99048 0 0  2.09524 0 0  2.2 0.1025 0  2.2 0.205 0  2.2 0.3075 0  2.1 0.41 0  2 0.41 0  1.9 0.41 0  1.8 0.41 0  1.7 0.41 0  1.6 0.41 0  1.5 0.41 0  1.4 0.41 0  1.3 0.41 0  1.2 0.41 0  1.1 0.41 0  1 0.41 0  0.9 0.41 0  0.8 0.41 0  0.7 0.41 0  0.6 0.41 0  0.5 0.41 0  0.4 0.41 0  0.3 0.41 0  0.2 0.41 0  0.1 0.41 0  0 0.3075 0  0 0.205 0  0 0.1025 0  0.156699 0.225 0  0.175 0.243301 0  0.225 0.243301 0  0.243301 0.225 0  0.243301 0.175 0  0.225 0.156699 0  0.175 0.156699 0  0.156699 0.175 0  0.352033 0.262216 0  1.04579 0.252253 0  1.24065 0.243419 0  0.985775 0.171509 0  1.30324 0.187395 0  0.890988 0.190768 0  1.39085 0.202767 0  0.801464 0.204685 0  1.49904 0.204666 0  0.704267 0.202289 0  1.60238 0.204951 0  0.487789 0.19191 0  1.72935 0.219637 0  1.83335 0.187427 0  2.03359 0.193642 0  0.314663 0.307348 0  0.249039 0.333583 0  2.12147 0.253405 0  2.06373 0.0836837 0  0.0734726 0.267055 0  0.143989 0.0677174 0  0.0613613 0.33781 0  0.299628 0.236829 0  0.527114 0.295386 0  0.262384 0.26549 0  0.275777 0.18341 0  1.74578 0.330928 0  1.84001 0.302448 0  1.64998 0.313838 0  0.648421 0.302367 0  1.54544 0.308508 0  0.755686 0.306156 0  1.42668 0.314809 0  0.870524 0.298596 0  1.22553 0.112785 0  1.05603 0.147372 0  0.969346 0.329867 0  1.32527 0.276284 0  2.02914 0.29511 0  1.88168 0.119486 0  1.79545 0.104842 0  1.35688 0.0892539 0  1.69041 0.105324 0  0.914199 0.09555660000000001 0  1.58234 0.102923 0  0.61843 0.10815 0  1.47999 0.101161 0  0.725217 0.104273 0  0.821727 0.102306 0  1.96725 0.105778 0  0.418624 0.241547 0  0.135226 0.239087 0  1.14921 0.314841 0  0.404508 0.333259 0  0.590155 0.206269 0  2.12554 0.150731 0  1.93166 0.22436 0  0.104689 0.190046 0  0.267856 0.07447529999999999 0  0.269368 0.221581 0  0.434446 0.114927 0  1.0089 0.07933809999999999 0  0.953023 0.246698 0  1.25853 0.33355 0  1.05268 0.340828 0  2.1369 0.067383 0  0.522398 0.112537 0  1.3421 0.348929 0  0.215186 0.289473 0  0.203197 0.335348 0  1.13984 0.190728 0  1.93813 0.330504 0  1.10505 0.0883705 0  0.341988 0.0824728 0  0.253113 0.138035 0  0.291932 0.131907 0  0.203713 0.102439 0  0.150375 0.134668 0  0.151494 0.309119 0  0.354384 0.17896 0  0.06853670000000001 0.100776 0  0.424128 0.180088 0  0.474925 0.0568661 0  2.10843 0.347669 0  2.160735 0.2804525 0  2.160735 0.2292025 0  2.2 0.25625 0  2.079485 0.04184185 0  2.027105 0.04184185 0  2.04286 0 0  0.1767565 0.0338587 0  0.1243755 0.0338587 0  0.157143 0 0  0.08068065000000001 0.373905 0  0.03068065 0.373905 0  0.05 0.41 0  0.03068065 0.322655 0  0 0.35875 0  0.281851 0.3204655 0  0.2745195 0.3717915 0  0.3073315 0.358674 0  0.06741695 0.3024325 0  0.0367363 0.2872775 0  0.3071455 0.2720885 0  0.3258305 0.2495225 0  0.333348 0.284782 0  0.2557115 0.2995365 0  0.2885235 0.286419 0  2.075305 0.2742575 0  2.031365 0.244376 0  2.07753 0.2235235 0  2.01549 0.09473085000000001 0  1.978865 0.052889 0  2.00042 0.14971 0  2.04866 0.13866285 0  0.472869 0.2684665 0  0.4532065 0.2167285 0  0.5074514999999999 0.243648 0  2.16277 0.1778655 0  2.16277 0.1266155 0  2.2 0.15375 0  1.90667 0.171923 0  1.882505 0.2058935 0  1.857515 0.1534565 0  1.885835 0.263404 0  1.83668 0.2449375 0  0.6042925 0.1572095 0  0.647211 0.204279 0  0.6613485 0.1552195 0  0.3595855 0.3203035 0  0.3782705 0.2977375 0  0.155113 0.241194 0  0.1459625 0.2320435 0  0.1658495 0.2341505 0  0.259539 0.179205 0  0.2628885 0.191705 0  0.2466505 0.1875 0  0.281006 0.2511595 0  1.0209025 0.1594405 0  1.05091 0.1998125 0  1.0157825 0.211881 0  1.264385 0.15009 0  1.23309 0.178102 0  1.271945 0.215407 0  1.291205 0.10101945 0  1.33006 0.13832445 0  0.928528 0.0477783 0  0.876147 0.0477783 0  0.890476 0 0  0.9025935 0.1431623 0  0.9499869999999999 0.1335328 0  0.9383815 0.1811385 0  0.867963 0.0989313 0  0.8563575 0.146537 0  0.8299110000000001 0.051153 0  1.411775 0.04462695 0  1.35939 0.04462695 0  1.414285 0 0  1.373865 0.14601045 0  1.347045 0.195081 0  1.418435 0.09520745 0  1.43542 0.151964 0  1.47333 0.0505805 0  0.7775300000000001 0.051153 0  0.785714 0 0  0.8115954999999999 0.1534955 0  0.8462259999999999 0.1977265 0  0.7734719999999999 0.1032895 0  0.7633405 0.154479 0  0.729275 0.0521365 0  1.52571 0.0505805 0  1.51905 0 0  1.489515 0.1529135 0  1.444945 0.2037165 0  1.531165 0.102042 0  1.54069 0.1537945 0  1.576885 0.0514615 0  1.9804 0.259735 0  1.982625 0.209001 0  1.820005 0.356224 0  1.870005 0.356224 0  1.85 0.41 0  1.78468 0.2610425 0  1.78135 0.203532 0  1.72289 0.370464 0  1.77289 0.370464 0  1.75 0.41 0  1.792895 0.316688 0  1.737565 0.2752825 0  1.62499 0.361919 0  1.67499 0.361919 0  1.65 0.41 0  1.69788 0.322383 0  1.689665 0.2667375 0  1.62618 0.2593945 0  1.665865 0.212294 0  0.6242105 0.3561835 0  0.6742105 0.3561835 0  0.6499999999999999 0.41 0  0.6192880000000001 0.254318 0  0.6763440000000001 0.252328 0  1.52272 0.359254 0  1.57272 0.359254 0  1.55 0.41 0  1.59771 0.311173 0  1.57391 0.2567295 0  1.52224 0.256587 0  1.55071 0.2048085 0  0.727843 0.358078 0  0.7778430000000001 0.358078 0  0.75 0.41 0  0.7020535 0.3042615 0  0.7299765 0.2542225 0  0.778575 0.2554205 0  0.7528655 0.203487 0  1.41334 0.3624045 0  1.46334 0.3624045 0  1.45 0.41 0  1.48606 0.3116585 0  1.46286 0.2597375 0  1.408765 0.258788 0  0.8352619999999999 0.354298 0  0.885262 0.354298 0  0.8500000000000001 0.41 0  0.813105 0.302376 0  0.8359939999999999 0.2516405 0  0.880756 0.244682 0  0.9346730000000001 0.3699335 0  0.984673 0.3699335 0  0.95 0.41 0  0.9199349999999999 0.3142315 0  0.676894 0.0521365 0  0.680952 0 0  0.714742 0.153281 0  0.6718235 0.1062115 0  0.6235005 0.054075 0  1.629265 0.0514615 0  1.62381 0 0  1.59236 0.153937 0  1.636375 0.1041235 0  1.646395 0.1551375 0  1.6833 0.052662 0  1.73568 0.052662 0  1.72857 0 0  1.70988 0.1624805 0  1.74293 0.105083 0  1.7624 0.1622395 0  1.7882 0.052421 0  1.84058 0.052421 0  1.83333 0 0  1.8144 0.1461345 0  1.838565 0.112164 0  1.883695 0.059743 0  1.124605 0.3624205 0  1.174605 0.3624205 0  1.15 0.41 0  1.314255 0.2318395 0  1.28296 0.2598515 0  1.35806 0.2395255 0  1.375975 0.2955465 0  1.92648 0.052889 0  1.938095 0 0  1.924465 0.112632 0  1.949455 0.165069 0  0.352254 0.3716295 0  0.402254 0.3716295 0  0.35 0.41 0  0.513557 0.352693 0  0.563557 0.352693 0  0.55 0.41 0  0.5877675 0.2988765 0  0.5586344999999999 0.2508275 0  0.538972 0.1990895 0  0.452254 0.3716295 0  0.45 0.41 0  0.465811 0.3143225 0  0.411566 0.287403 0  0.3853285 0.2518815 0  0.1199575 0.2145665 0  0.0890808 0.2285505 0  0.1043493 0.253071 0  0.2245195 0.3717915 0  0.25 0.41 0  0.291071 0.03723765 0  0.23869 0.03723765 0  0.261905 0 0  0.265876 0.2435355 0  0.2563345 0.2232905 0  0.2528425 0.245245 0  0.284498 0.229205 0  1.032465 0.11335505 0  0.9973375 0.12542355 0  0.9615494999999999 0.08744735000000001 0  0.9220055 0.218733 0  0.9693989999999999 0.2091035 0  0.9611845 0.2882825 0  0.9117735 0.272647 0  1.229265 0.371775 0  1.279265 0.371775 0  1.25 0.41 0  1.02634 0.375414 0  1.07634 0.375414 0  1.05 0.41 0  1.011013 0.3353475 0  2.11607 0.0336915 0  2.16845 0.0336915 0  2.14762 0 0  2.16845 0.0849415 0  2.2 0.05125 0  2.100315 0.07553335 0  0.5562765000000001 0.159403 0  0.570414 0.1103435 0  0.5050935 0.1522235 0  1.32105 0.3794645 0  1.37105 0.3794645 0  1.35 0.41 0  1.333685 0.3126065 0  1.38439 0.331869 0  0.9994065 0.2494755 0  1.007568 0.29106 0  1.300315 0.3412395 0  1.2919 0.304917 0  2.13122 0.109057 0  2.094635 0.11720735 0  0.2725725 0.2024955 0  0.259684 0.2107905 0  0.2466505 0.2125 0  0.2877025 0.2101195 0  2.123505 0.202068 0  2.079565 0.1721865 0  1.02826 0.03966905 0  0.9758784999999999 0.03966905 0  0.9952384999999999 0 0  1.049235 0.2965405 0  1.100945 0.3278345 0  1.0975 0.283547 0  0.5711200000000001 0.054075 0  0.5761905 0 0  0.523104 0.0562685 0  1.24959 0.2884845 0  1.20387 0.3241955 0  1.19493 0.27913 0  0.238785 0.2774815 0  0.2321125 0.311528 0  0.226118 0.3344655 0  0.2015985 0.3726739999999999 0  1.144525 0.2527845 0  1.190245 0.2170735 0  1.092815 0.2214905 0  0.2091915 0.3124105 0  0.220093 0.266387 0  0.243692 0.2543955 0  0.2341505 0.2341505 0  0.478422 0.113732 0  0.4611175 0.1534185 0  1.919065 0.370252 0  1.969065 0.370252 0  1.95 0.41 0  1.983635 0.312807 0  2.01457 0.352555 0  1.88907 0.316476 0  1.934895 0.277432 0  1.182685 0.1517565 0  1.097935 0.16905 0  1.128715 0.04418525 0  1.076335 0.04418525 0  1.1 0 0  1.056975 0.08385429999999999 0  1.08054 0.11787125 0  1.122445 0.13954925 0  1.16529 0.10057775 0  0.304922 0.07847404999999999 0  0.328137 0.0412364 0  0.380518 0.0412364 0  0.366667 0 0  0.388217 0.09869990000000001 0  0.426747 0.0574635 0  0.31696 0.1071899 0  0.279894 0.10319115 0  0.2725225 0.134971 0  0.2604845 0.10625515 0  0.228413 0.120237 0  0.2143565 0.129569 0  0.2390565 0.147367 0  1.30701 0.04462695 0  1.30952 0 0  1.241335 0.0563925 0  0.2357845 0.08845715 0  1.188955 0.0563925 0  1.20476 0 0  0.2066185 0.0512195 0  0.173851 0.08507819999999999 0  0.0367363 0.2360275 0  0 0.25625 0  0.264445 0.1607225 0  0.248207 0.1565175 0  0.2341505 0.1658495 0  0.2838545 0.1576585 0  0.130694 0.182523 0  0.1273445 0.195023 0  0.1533495 0.1875 0  0.127532 0.162357 0  0.153537 0.154834 0  0.0523445 0.197523 0  0.14336 0.274103 0  0.1124833 0.288087 0  0.3150805 0.181185 0  0.327006 0.2078945 0  0.323158 0.1554335 0  0.08664935 0.050388 0  0.03426835 0.050388 0  0.052381 0 0  0.03426835 0.101638 0  0 0.05125 0  0.421376 0.2108175 0  0.4559585 0.185999 0  0.429287 0.1475075 0  0.10642765 0.3234645 0  0.353208
[...]
<PointData  Scalars="f_38"> 
<DataArray  type="Float64"  Name="f_38"  format="ascii">-1.2989052985649490e+01  -1.4634144621090499e+01  1.4634151598289472e+01  1.3011819425281610e+01  -1.3990464375256215e+00  2.6014966643122580e-02  8.5040626459744331e+01  -8.6276008053312168e+01  -2.8961265662954272e+01  -4.5073245906863001e+01  -2.7340886587889624e+01  -1.6363562814708718e+01  -1.4670078809860994e+01  -1.4607392302485382e+01  -1.4633372761617208e+01  -1.4637832229235753e+01  -1.4636148575340236e+01  -1.4634783925578548e+01  -1.4634265549288493e+01  -1.4634141464709742e+01  -1.4634130172855338e+01  -1.4634139305448064e+01  -1.4634138897034280e+01  -1.4634145026644195e+01  -1.4634144813575045e+01  -1.4634145125789944e+01  -1.4634143784463291e+01  -1.4634150127788923e+01  -7.3170716382311749e+00  -1.7868598049165151e-06  7.3170778313220453e+00  1.4634134366320184e+01  1.4634141883653520e+01  1.4634141644207114e+01  1.4634146943056589e+01  1.4634148196689978e+01  1.4634146949383835e+01  1.4634152933521325e+01  1.4634159926941068e+01  1.4634158865746551e+01  1.4634108434374710e+01  1.4633844657271407e+01  1.4632970095064254e+01  1.4630683076785820e+01  1.4626028723715240e+01  1.4620344905595127e+01  1.4653424313281155e+01  1.5063802497703051e+01  1.8161626294087650e+01  3.0734097908789423e+01  4.4949930318772438e+01  2.8488104145153137e+01  1.9218825160288969e+01  1.9119624340403494e+00  -1.7805166357322811e+01  -5.2662499454618050e+01  -7.5147102519078118e+01  -7.4849271230801889e+01  -4.4411757413939974e+01  4.3052107075196560e+01  7.4769474782144286e+01  8.0300939324050461e+01  4.3736717978907748e+01  5.5373567971545756e-01  3.3732117443856482e+00  2.7425284158307410e+00  -2.3904122014705633e+00  -1.2567866307538647e+00  -1.0139193135520879e+00  -1.5942251425842915e-01  -1.6222315827066718e-02  -2.3846795934248235e-02  -1.7868022213219079e-01  -3.5011713984156949e-03  -9.5197927670138505e-01  1.0448777960486697e+00  -1.2544688560015631e+00  -8.1080375322176468e-01  2.0867305391027178e+00  2.8919310209558575e+00  3.4554438824922689e+00  -8.6602957856275236e+00  1.0933060143363782e+00  -5.6478757090207106e+00  1.1897809197987904e+01  -7.7850965160528771e+00  6.6228717949493312e+00  -2.2684670364772600e+01  8.3632857761265118e+00  8.9895049004594618e+00  6.9564297876082293e+00  7.7695184598696203e+00  6.9970194274435462e+00  7.3890304146714083e+00  7.2304596726706301e+00  7.8388303075087276e+00  6.6827740516286278e+00  -6.5829237466744885e+00  -4.1138679852431412e+00  8.9132832702859091e+00  5.0886619584037591e+00  6.4325945365738209e+00  -6.1045103443739084e+00  -7.1498875235878110e+00  -8.2626681635300674e+00  -7.1154795360456040e+00  -7.8126051141869697e+00  -7.2868748923426043e+00  -6.9223004385865581e+00  -7.4126583333301133e+00  -7.1858642640268000e+00  -7.3289309675415577e+00  -7.0830676086695670e+00  2.1191557352684538e+00  -2.5454321901981736e+01  7.8409879068184951e+00  9.9668905895433095e+00  1.1794603937877789e-01  -3.8740496645730786e+00  1.3820336947987153e+00  1.9670691433794407e+00  -3.8292533850159827e+00  -1.4395811873255971e+01  -6.3337152754235833e+00  -8.9708778870314916e+00  2.9773228207706195e+00  9.1766420146356467e+00  9.6958524503173660e+00  -9.8239337807784644e+00  -6.6668486064456607e+00  1.0274518010078209e+01  -2.9327725995254784e+01  1.1526336492748075e+00  -1.0188899867275023e+00  8.9592431154856058e+00  -8.3259105812806045e+00  -7.7688224442739795e+00  2.7987259720665502e+01  8.1296826186267364e+00  2.1353212537727465e+01  2.9288184389154150e+01  -9.1227075295603335e+00  -4.5885038595169453e-01  -6.4682838267099507e+00  -1.5937169946945708e+00  -1.0953487908702664e+01  1.0184572878501982e+01  5.3862557837997036e+00  1.7277232842938246e+00  3.6585371617099551e+00  -1.1647217443606378e+01  -1.1647216769399877e+01  -1.4634151430002438e+01  -2.3130841630290945e+01  -2.0049839105071161e+01  -4.1137130115937140e+01  1.7670843537696111e+01  1.4880565832975604e+01  1.7843780981279124e+01  1.3711239981942601e+01  1.4688687821487337e+01  1.3975370952536121e+00  2.0424263335840905e+01  1.4660358751435938e+01  6.5022137169809602e+00  1.0569080959118317e+01  -5.3501227666768871e+00  -3.1867631917829859e+00  9.6097895824001656e-01  -1.2235314093585032e+01  -7.3387074845416143e+00  4.9440201528581973e+00  2.8108984199320122e+00  1.3223202682288115e+00  -7.8716803158938466e+00  -1.0858608242706209e+01  -3.9469357001013496e+00  -4.7355474339560182e+00  4.5713817955944984e+00  7.3565605555236802e-01  2.7961253477864481e+00  -1.9370253742953669e+00  -5.5955626685244102e+00  -3.6585358188985313e+00  -2.3612385646992347e+00  6.3781729872950901e-02  -3.6794878506359971e+00  4.1692339427083969e+00  2.8509810010230607e+00  -3.4095121798600463e+00  -3.0107091342423429e-02  -3.5446651755984644e+00  7.6080821677893109e+00  5.6576351954645787e+00  -4.6623492376134898e+01  -3.6007922553828458e+01  -5.3093133467678285e+01  1.9437250576610570e+01  7.4418575935727214e+00  1.8205267263637349e+01  -1.4948804446089941e+01  -3.2521926177073639e+00  -3.7024778045092305e-01  4.9143097154438820e-01  -3.9198549509961831e+00  -1.9202006422884428e+00  7.4287370522031759e-01  -7.4227927931204762e+00  -4.7597286274118682e+00  -1.1224484837381143e+01  -1.1224523358918892e+01  -1.4637111172728554e+01  -4.4131240901311539e+00  -5.1013399005350566e+00  -1.7024127423177311e+00  -7.5709982583363020e+00  -4.1710215915555517e+00  -1.0983020127553372e+01  -1.1448393993368606e+01  -1.1448406621432978e+01  -1.4634130972264527e+01  -4.2110470526161059e+00  -7.0809961102131802e-01  -7.8376622843083341e+00  -3.7860367178395049e+00  -1.1023397853710735e+01  -1.0981626420387844e+01  -1.4637272609148390e+01  -3.6724682024746453e+00  -5.1550882334832449e-01  -7.2571902335744394e+00  -3.5999666493165821e+00  -1.0909244891930539e+01  -1.1023399479320815e+01  -1.4634133773516622e+01  -3.7182555917040925e+00  -9.1633206423126667e-02  -7.3497654247188580e+00  -3.6553628990270508e+00  -1.0960509299927255e+01  3.9073179067052473e+00  2.8561450658109883e-01  1.0795288311395970e+01  1.0795292843972970e+01  1.4634145958168785e+01  4.0006552600245220e+00  -1.0479499216428598e-01  1.1811831072828900e+01  1.1811831970710381e+01  1.4634138532949262e+01  7.9729667063143577e+00  5.0171915391811881e+00  1.1201835253259844e+01  1.1201835909582911e+01  1.4634148492770043e+01  8.3795111689693940e+00  4.4071965165800382e+00  3.8830093115276982e+00  5.2069000696534473e-01  1.0850737912747944e+01  1.0813615622654821e+01  1.4627347655769276e+01  3.5687398124003935e+00  3.4058851279112017e+00  1.1011592792120766e+01  1.1011592474305015e+01  1.4634149559578766e+01  7.5792736760741741e+00  3.6927657881325811e+00  3.6825907199080148e+00  -1.3672383055614509e-02  1.0932698382921691e+01  1.0927732183732326e+01  1.4622807998848467e+01  7.1074719820179597e+00  3.5292668855279463e+00  3.6078923147396362e+00  -9.7908503424634363e-02  1.1236495415378199e+01  1.1236496097782029e+01  1.4634156054896197e+01  7.6139319131390115e+00  3.9074898649554375e+00  3.8397042443538054e+00  1.0656737161883315e+01  1.0656511477929136e+01  1.4628768052377559e+01  6.9549682023692663e+00  3.3335626810506271e+00  2.8350453382585452e+00  1.1772464263814090e+01  1.1772979476708391e+01  1.4632109706348503e+01  7.7975408547086271e+00  -1.0907357387539845e+01  -1.4623416633682810e+01  -3.6836689192568173e+00  -7.0487669839675462e+00  -1.0775960436210964e+01  -1.0960508354824979e+01  -1.4634142699828587e+01  -3.6451878528237356e+00  -7.2011774075706203e+00  -3.5594886219444066e+00  -1.0874809253824298e+01  -1.0874809827742892e+01  -1.4634145460459949e+01  -3.0352984761796979e+00  -7.1326812825123431e+00  -3.0525037360653715e+00  -1.0892014913874933e+01  -1.0892014507980251e+01  -1.4634143683712503e+01  -4.2021771581219847e+00  -6.6271978102701832e+00  -1.0369325876546073e+01  1.1237425990198208e+01  1.1237527962199628e+01  1.4634015179978523e+01  1.9159358001037219e+00  3.9155924969396141e+00  2.4646180464493388e+00  6.4637480402555907e+00  -1.0858607013144312e+01  -1.4634141974471310e+01  -6.5937880377562150e+00  -2.8505182703764951e+00  1.5886944523694636e+01  1.4160643169168411e+01  2.2548554019297310e+01  1.0917414334693149e+01  1.0720479334900411e+01  1.4782152872248847e+01  6.7976544124632499e+00  3.3365114661576163e+00  -4.0456383812771141e-01  1.3069480328000601e+01  1.6076166335512664e+01  8.1653988749840387e+00  5.4609008230799505e+00  1.8058489728930405e+00  -8.6453376102831765e+00  -3.9742172269618803e+00  -9.2706994091600414e+00  2.1898072925248734e+01  4.0515854240564082e+01  -1.8774850351639298e+01  -2.0970942070105540e+01  -3.8066680387389226e+01  -2.3568913057171304e+01  -2.5291213314581618e+01  -3.3535352523957364e+01  -1.1500584052025864e+01  -6.5423025273878848e+00  -5.6806155688100146e+00  -8.3918991227576267e+00  9.8168364556910148e-01  2.9352140734286170e-01  5.9453452686937380e+00  4.8300616772523046e+00  1.1905376434686497e+01  1.1905405883028639e+01  1.4634142149655855e+01  1.2164490540764943e+01  1.2164792956213985e+01  1.4633527773919559e+01  9.3045301022558711e+00  -1.2229045076207900e+01  -1.2229047060892240e+01  -1.4634148355103836e+01  -8.5705051549861366e+00  -1.0975607853493514e+01  -9.2421132903366150e+00  -3.2651157490605991e+00  -6.7847810185015538e+00  -3.7811767561423122e+00  1.2454344605472421e+01  1.2454343231402104e+01  1.4634161778013624e+01  7.6815894803339759e+00  9.0566784782822012e+00  3.1751475536746594e+00  6.1434091965194781e+00  9.7255853267548975e+00  7.1326529661802267e+00  -6.8489945088538322e+00  -6.2671711482686385e+00  -2.6771404070227272e+00  -1.1054055361913033e+01  -1.8909243510944531e+01  -3.9235380217012223e+00  -2.0930530507974185e-01  -2.3424268626459126e+00  -1.1802931532832506e+01  -1.1803269043058021e+01  -1.4635334597199915e+01  6.5345445177382100e+00  8.7684483593302414e+00  5.6070351119396733e+00  -1.0808773423619314e+01  -1.4598916500956886e+01  -1.0764958809636584e+01  5.9595812582889689e+00  8.5088222396479676e+00  5.2917681765882705e+00  -3.0742602209056813e+01  -1.0830617535100325e+01  1.5045380682917560e+00  2.2077145277777468e+01  3.4110613134597254e+00  8.6181752495552677e-01  1.1771517755128229e+00  -1.3266416405242984e+01  -4.9927397496591688e+01  -4.0448778065861951e+01  -5.3534772781402602e+01  -6.5905183633858453e+00  -3.6221462047374473e+00  1.1796692238965601e+01  1.1796690993940791e+01  1.4634157201071552e+01  7.6959207975629473e+00  1.0533373370096186e+01  7.9578314373202499e+00  5.1706364323833141e+00  -3.8009256536943044e+00  -2.5663797292509063e+00  -1.1480128702115866e+01  -1.1480291619400038e+01  -1.4634456108379768e+01  -8.6483873075275106e+00  -6.2199121303804263e+00  -4.6723653145331649e+00  -7.4543998651939374e+00  -6.3711562337058254e+00  -1.6141215362388454e+01  -1.4055622970245674e+01  -2.0064154930341939e+01  -7.1974257011645815e+00  -1.1385059170881147e+01  -9.5251566875874027e-01  4.8236283392529575e+00  1.6705748665404879e+01  1.1134311851630697e+01  3.1957189862087262e+01  4.6105564930142414e+01  4.6454286582664970e+01  -1.1448400333368594e+01  -1.4634138045166235e+01  -1.0608547455668175e+01  7.6151748089830296e+00  -1.0608597669641492e+01  -1.4634182111297608e+01  -1.2694108305762976e+01  7.0276450621309001e+00  5.5661394288232708e+00  1.6740655418454530e+01  2.3327643365572587e+01  3.7510364601237498e+01  5.2190476778980994e+01  1.1706645903075463e+01  1.0550646429821580e+01  2.8779181172913488e+00  1.8154109397582950e+01  1.7601950126760027e+01  4.1149995269993696e+01  -4.1552909543489031e-01  -2.3697850754583371e+01  -6.5728112481448377e+00  1.7939110903511344e+00  -9.0136945532744850e-01  2.2813259890542184e+00  -1.4047360192618585e+01  -1.4351106011030586e+01  -1.8582449577899130e+01  -1.1818300278422706e+01  -1.5257555357949824e+01  1.8031782726812393e-01  -1.3342384181914206e+00  -3.8307302823369529e+00  4.8589085270329671e+00  -6.3049223905587992e-01  -3.8114196760041326e+00  -6.6901720776759461e+00  -1.3420783497280913e+01  5.1107918135735462e+00  1.0684669602787968e+01  2.2829200438523896e+00  4.8615244564329721e+01  5.3672940216943012e+01  -1.7870578676778208e+00  -1.9908945528743088e-01  -1.3145148496817594e+00  -3.2439587289692802e+00  1.5208828672053118e+01  1.4988853746945530e+01  3.9416165446152263e+01  -6.1196580521181554e+00  -2.2816139316012130e+01  -2.5857511140542044e+01  -1.2845573866827165e+01  -1.3411537625743868e+01  -1.5005693110912787e+01  -8.7647188180753872e+00  -8.7691066800739144e+00  4.6254911212782233e+01  7.5296857912528893e+01  -2.2072846588672068e+01  5.5272143403808300e+01  7.3732525885315880e+01  3.2739579725857531e+01  8.7508310565155014e+00  1.2409366514676389e+01  1.0975595399029105e+01  1.2409379411125601e+01  1.4634157928854560e+01  1.2409367592352755e+01  1.4634144634256250e+01  8.3085998938274841e+00  6.8200144866905514e+00  -5.2162856395944743e+01  -7.4172954368233576e+01  -3.3057040595329127e+01  -3.4450446571623345e+01  -7.4680095745509661e+01  </DataArray> 
</PointData> 
</Piece>
</UnstructuredGrid>
</VTKFile>