<?xml version="1.0"?>
<VTKFile type="UnstructuredGrid"  version="0.1"  >
<UnstructuredGrid>
<Piece  NumberOfPoints="2868" NumberOfCells="5400">
<Points>
<DataArray  type="Float32"  NumberOfComponents="3"  format="ascii">0.534923 0.326073 0  0.510642 0.314196 0  0.466125 0.293082 0  0.436448 0.281205 0  0.409468 0.275927 0  0.368998 0.270648 0  0.35281 0.275927 0  0.381139 0.302319 0  0.405421 0.326073 0  0.410817 0.33531 0  0.408119 0.349826 0  0.400025 0.357744 0  0.375743 0.368301 0  0.329878 0.392055 0  0.297502 0.432963 0  0.282663 0.476511 0  0.285361 0.524018 0  0.298851 0.572845 0  0.317737 0.604516 0  0.337972 0.636187 0  0.360904 0.674457 0  0.368998 0.69953 0  0.359555 0.721964 0  0.360904 0.757594 0  0.370347 0.766831 0  0.381139 0.762872 0  0.390582 0.741758 0  0.404072 0.720644 0  0.424307 0.707448 0  0.447239 0.702169 0  0.480964 0.704808 0  0.479615 0.688973 0  0.468823 0.675776 0  0.447239 0.669178 0  0.428354 0.669178 0  0.410817 0.6639 0  0.404072 0.653343 0  0.395978 0.628269 0  0.387884 0.59132 0  0.389233 0.576804 0  0.397327 0.557009 0  0.410817 0.547772 0  0.424307 0.546452 0  0.437797 0.55305 0  0.44589 0.566247 0  0.441843 0.582082 0  0.439145 0.597918 0  0.449937 0.609795 0  0.468823 0.603196 0  0.479615 0.59 0  0.489058 0.570205 0  0.494454 0.546452 0  0.505246 0.522699 0  0.522783 0.509502 0  0.55246 0.494986 0  0.586185 0.484429 0  0.615863 0.48047 0  0.64554 0.473872 0  0.667124 0.461995 0  0.683312 0.451438 0  0.696802 0.435603 0  0.703547 0.417128 0  0.71164 0.393374 0  0.718385 0.37226 0  0.72513 0.364342 0  0.739969 0.353785 0  0.745365 0.344548 0  0.745365 0.327393 0  0.737271 0.318155 0  0.718385 0.316835 0  0.700849 0.319475 0  0.677916 0.318155 0  0.650936 0.316835 0  0.610467 0.318155 0  0.57944 0.324753 0  0.559205 0.328712 0  0.53897 0.326073 0  1 1 0  1 0 0  0 0 0  0 1 0  0.532238 0.32476 0  0.528748 0.323052 0  0.52421 0.320833 0  0.518311 0.317947 0  0.503447 0.310783 0  0.494093 0.306347 0  0.481933 0.30058 0  0.452151 0.28749 0  0.392327 0.273691 0  0.379141 0.271971 0  0.360474 0.283066 0  0.369797 0.291752 0  0.391424 0.31238 0  0.399335 0.32012 0  0.40958 0.341964 0  0.393939 0.36039 0  0.386028 0.36383 0  0.364248 0.374254 0  0.349304 0.381994 0  0.315801 0.409841 0  0.292986 0.551616 0  0.350934 0.657818 0  0.360127 0.737055 0  0.360566 0.748664 0  0.385245 0.753692 0  0.396447 0.732578 0  0.466301 0.703661 0  0.459439 0.672908 0  0.418442 0.666195 0  0.400553 0.642441 0  0.39255 0.612619 0  0.389913 0.60058 0  0.392752 0.568197 0  0.444131 0.573132 0  0.458149 0.606926 0  0.500554 0.533026 0  0.571522 0.489019 0  0.632637 0.476741 0  0.689177 0.444553 0  0.708121 0.403702 0  0.715453 0.38144 0  0.732406 0.359166 0  0.745365 0.337089 0  0.72906 0.317581 0  0.629879 0.317522 0  0.59293 0.321884 0  0.568003 0.326991 0  0.55202 0.327775 0  0.546493 0.327054 0  0.542241 0.326499 0  1 0.9 0  1 0.8 0  1 0.7 0  1 0.6 0  1 0.5 0  1 0.4 0  1 0.3 0  1 0.2 0  1 0.1 0  0.9 0 0  0.8 0 0  0.7 0 0  0.6 0 0  0.5 0 0  0.4 0 0  0.3 0 0  0.2 0 0  0.1 0 0  0.1 1 0  0.2 1 0  0.3 1 0  0.4 1 0  0.5 1 0  0.6 1 0  0.7 1 0  0.8 1 0  0.9 1 0  0 0.1 0  0 0.2 0  0 0.3 0  0 0.4 0  0 0.5 0  0 0.6 0  0 0.7 0  0 0.8 0  0 0.9 0  0.535686 0.503191 0  0.753987 0.733359 0  0.167145 0.741436 0  0.173378 0.257204 0  0.733497 0.159862 0  0.554096 0.15788 0  0.849187 0.479053 0  0.488793 0.838452 0  0.138507 0.5592 0  0.30686 0.154944 0  0.348904 0.890523 0  0.058006 0.065099 0  0.069849 0.937917 0  0.93633 0.939704 0  0.934625 0.053613 0  0.343397 0.333452 0  0.473272 0.639943 0  0.433266 0.638072 0  0.415174 0.58269 0  0.533435 0.545042 0  0.390848 0.340652 0  0.53655 0.320242 0  0.127966 0.393775 0  0.83861 0.850455 0  0.635242 0.85513 0  0.852158 0.633441 0  0.653427 0.626848 0  0.861226 0.24292 0  0.166128 0.12976 0  0.216875 0.869871 0  0.458305 0.11179 0  0.84446 0.101633 0  0.202024 0.642528 0  0.644825 0.115855 0  0.671342 0.218358 0  0.251354 0.286186 0  0.262388 0.75153 0  0.063044 0.751571 0  0.068189 0.242962 0  0.435781 0.905395 0  0.934144 0.451133 0  0.568393 0.237622 0  0.814984 0.395506 0  0.752951 0.517227 0  0.456254 0.780699 0  0.073352 0.531116 0  0.337731 0.206071 0  0.363213 0.960371 0  0.330742 0.363592 0  0.516613 0.55705 0  0.369057 0.332992 0  0.500926 0.617309 0  0.498004 0.665534 0  0.412142 0.61178 0  0.454233 0.636604 0  0.422782 0.567496 0  0.541193 0.52148 0  0.439761 0.65557 0  0.5163 0.533672 0  0.414775 0.64562 0  0.40073 0.576135 0  0.430362 0.588034 0  0.385432 0.351492 0  0.400298 0.335397 0  0.398325 0.348194 0  0.528702 0.314885 0  0.540814 0.322334 0  0.534477 0.322953 0  0.619095 0.743583 0  0.885162 0.737972 0  0.08076 0.668849 0  0.90734 0.36634 0  0.094687 0.868937 0  0.759838 0.912152 0  0.901518 0.540898 0  0.747285 0.607479 0  0.229182 0.071641 0  0.069154 0.450091 0  0.244775 0.203309 0  0.076534 0.331755 0  0.897847 0.167826 0  0.578909 0.911415 0  0.077133 0.146341 0  0.477215 0.203448 0  0.922631 0.869341 0  0.517415 0.074785 0  0.297026 0.827793 0  0.783271 0.246505 0  0.74519 0.061079 0  0.36033 0.069068 0  0.210313 0.475228 0  0.859426 0.928758 0  0.574548 0.609182 0  0.243069 0.383398 0  0.283099 0.934598 0  0.417416 0.843141 0  0.643942 0.553164 0  0.112687 0.079336 0  0.281357 0.658386 0  0.765043 0.436177 0  0.611361 0.198486 0  0.234496 0.58911 0  0.206479 0.702638 0  0.679608 0.155818 0  0.62682 0.259978 0  0.690538 0.264164 0  0.448938 0.956308 0  0.808154 0.328403 0  0.379583 0.91913 0  0.308083 0.297769 0  0.312358 0.730249 0  0.563101 0.278576 0  0.435597 0.746198 0  0.385475 0.225229 0  0.572248 0.518034 0  0.357864 0.35422 0  0.497647 0.641694 0  0.458101 0.655768 0  0.360474 0.310727 0  0.467038 0.620139 0  0.47798 0.659909 0  0.41102 0.628072 0  0.48324 0.609015 0  0.427544 0.617941 0  0.388633 0.328253 0  0.405336 0.599404 0  0.408351 0.565178 0  0.42395 0.600985 0  0.431562 0.576523 0  0.424905 0.655198 0  0.398064 0.58782 0  0.427739 0.557934 0  0.519291 0.303443 0  0.53142 0.320293 0  0.5449 0.323642 0  0.537166 0.323513 0  0.153974 0.920841 0  0.918186 0.67343 0  0.759946 0.820588 0  0.537526 0.783091 0  0.816532 0.545843 0  0.813991 0.178083 0  0.836774 0.702023 0  0.149815 0.318856 0  0.662287 0.923338 0  0.680146 0.791192 0  0.708961 0.663172 0  0.937278 0.287318 0  0.574622 0.688166 0  0.589474 0.076262 0  0.502822 0.926683 0  0.222269 0.811068 0  0.380457 0.164786 0  0.15321 0.684154 0  0.458063 0.051413 0  0.161702 0.056026 0  0.199351 0.198818 0  0.298946 0.095532 0  0.902465 0.795949 0  0.121139 0.791477 0  0.906269 0.112287 0  0.056109 0.822332 0  0.512172 0.13237 0  0.940964 0.741805 0  0.888887 0.408777 0  0.354543 0.825964 0  0.808736 0.068638 0  0.068507 0.394071 0  0.719105 0.563843 0  0.247287 0.149664 0  0.293062 0.237128 0  0.240524 0.434997 0  0.141255 0.623289 0  0.945202 0.160621 0  0.502914 0.247629 0  0.144669 0.480811 0  0.665025 0.060817 0  0.728047 0.224344 0  0.861995 0.313312 0  0.200068 0.534235 0  0.253262 0.965623 0  0.893804 0.49307 0  0.604391 0.572456 0  0.947088 0.345347 0  0.439372 0.227307 0  0.629847 0.159823 0  0.273405 0.880181 0  0.302744 0.776823 0  0.781502 0.295365 0  0.275342 0.349602 0  0.728385 0.472798 0  0.229136 0.246478 0  0.807794 0.480346 0  0.709476 0.112786 0  0.275506 0.694991 0  0.771674 0.394419 0  0.449715 0.861802 0  0.419159 0.799696 0  0.674851 0.503139 0  0.280443 0.61016 0  0.572443 0.192538 0  0.393113 0.87525 0  0.405555 0.948428 0  0.330942 0.934103 0  0.540509 0.597101 0  0.312763 0.668931 0  0.254368 0.540179 0  0.595265 0.25915 0  0.606679 0.234099 0  0.657131 0.279138 0  0.722458 0.279478 0  0.333 0.308056 0  0.351529 0.246142 0  0.455714 0.725794 0  0.585239 0.295143 0  0.340062 0.72492 0  0.545593 0.293773 0  0.555449 0.545426 0  0.414311 0.737314 0  0.590854 0.502323 0  0.350507 0.368444 0  0.484423 0.625665 0  0.483899 0.674542 0  0.378137 0.317274 0  0.446416 0.646404 0  0.373532 0.347654 0  0.446876 0.619769 0  0.466106 0.666068 0  0.437545 0.609254 0  0.434988 0.565726 0  0.41462 0.656829 0  0.418803 0.556961 0  0.398425 0.327446 0  0.517803 0.310421 0  0.549516 0.322918 0  0.57701 0.842889 0  0.829127 0.773906 0  0.643235 0.684732 0  0.134281 0.207734 0  0.865997 0.055966 0  0.680959 0.723345 0  0.165229 0.841555 0  0.54558 0.959672 0  0.783726 0.656439 0  0.913315 0.595533 0  0.699439 0.860667 0  0.785839 0.125076 0  0.551673 0.037713 0  0.920097 0.223214 0  0.206406 0.299726 0  0.087064 0.596401 0  0.935644 0.394252 0  0.964557 0.252582 0  0.230124 0.928346 0  0.120579 0.271764 0  0.857215 0.524082 0  0.767098 0.555147 0  0.936094 0.507131 0  0.804064 0.59585 0  0.700565 0.608273 0  0.429773 0.174231 0  0.117746 0.727333 0  0.538962 0.730231 0  0.862761 0.359173 0  0.821444 0.284046 0  0.193552 0.35818 0  0.234923 0.505555 0  0.193209 0.421217 0  0.220144 0.755896 0  0.594015 0.131642 0  0.283813 0.195855 0  0.517519 0.213961 0  0.553509 0.639116 0  0.280391 0.378018 0  0.852183 0.436817 0  0.746983 0.197173 0  0.821806 0.221318 0  0.449853 0.828453 0  0.883758 0.453926 0  0.183484 0.589542 0  0.348384 0.129314 0  0.255254 0.838525 0  0.504849 0.798516 0  0.320344 0.863432 0  0.611669 0.525425 0  0.265864 0.804962 0  0.72056 0.521442 0  0.613372 0.610122 0  0.481262 0.881068 0  0.655778 0.191988 0  0.701921 0.196918 0  0.565826 0.573181 0  0.46914 0.240927 0  0.343219 0.173284 0  0.888786 0.278502 0  0.244113 0.675093 0  0.739546 0.417914 0  0.784023 0.355942 0  0.326805 0.265549 0  0.248616 0.634948 0  0.789183 0.413964 0  0.764107 0.476606 0  0.32086 0.698956 0  0.334735 0.791464 0  0.53448 0.258468 0  0.395208 0.824575 0  0.309962 0.638947 0  0.263264 0.22712 0  0.756395 0.267254 0  0.639281 0.224663 0  0.358631 0.85116 0  0.309751 0.332089 0  0.663461 0.246436 0  0.424083 0.871774 0  0.269645 0.445719 0  0.272183 0.572741 0  0.624492 0.294638 0  0.717827 0.250266 0  0.408215 0.763744 0  0.485997 0.274924 0  0.288138 0.274311 0  0.410524 0.242487 0  0.741513 0.385737 0  0.691284 0.483519 0  0.515531 0.581849 0  0.463005 0.753402 0  0.681919 0.
[...]
<PointData  Vectors="u"> 
<DataArray  type="Float32"  Name="u"  NumberOfComponents="3" format="ascii">2.715793e-03 1.320196e-01 0.000000e+00  3.496585e-03 1.358478e-01 0.000000e+00  5.127489e-03 1.422450e-01 0.000000e+00  5.627565e-03 1.471671e-01 0.000000e+00  5.836486e-03 1.524792e-01 0.000000e+00  5.786238e-03 1.631067e-01 0.000000e+00  7.182550e-03 1.721968e-01 0.000000e+00  8.437812e-03 1.827290e-01 0.000000e+00  1.090493e-02 1.849079e-01 0.000000e+00  1.160920e-02 1.849137e-01 0.000000e+00  1.251343e-02 1.849054e-01 0.000000e+00  1.285050e-02 1.846699e-01 0.000000e+00  1.311286e-02 1.824590e-01 0.000000e+00  1.168297e-02 1.786277e-01 0.000000e+00  7.732715e-03 1.794418e-01 0.000000e+00  3.097166e-03 1.825933e-01 0.000000e+00  -2.072144e-03 1.869982e-01 0.000000e+00  -7.033750e-03 1.921879e-01 0.000000e+00  -1.003173e-02 1.961566e-01 0.000000e+00  -1.212536e-02 1.995128e-01 0.000000e+00  -1.355746e-02 2.022808e-01 0.000000e+00  -1.402615e-02 2.030867e-01 0.000000e+00  -1.443826e-02 2.039102e-01 0.000000e+00  -1.664566e-02 2.074415e-01 0.000000e+00  -1.863251e-02 2.110500e-01 0.000000e+00  -2.034789e-02 2.148716e-01 0.000000e+00  -2.176621e-02 2.190611e-01 0.000000e+00  -2.133736e-02 2.221809e-01 0.000000e+00  -2.033108e-02 2.257872e-01 0.000000e+00  -1.937246e-02 2.307277e-01 0.000000e+00  -1.762221e-02 2.504298e-01 0.000000e+00  -1.787085e-02 2.726786e-01 0.000000e+00  -1.777631e-02 2.945486e-01 0.000000e+00  -1.939130e-02 3.177673e-01 0.000000e+00  -2.141936e-02 3.301676e-01 0.000000e+00  -2.397690e-02 3.372674e-01 0.000000e+00  -2.634537e-02 3.403040e-01 0.000000e+00  -3.300402e-02 3.476278e-01 0.000000e+00  -4.274515e-02 3.553085e-01 0.000000e+00  -4.455361e-02 3.563097e-01 0.000000e+00  -4.550942e-02 3.572491e-01 0.000000e+00  -4.537575e-02 3.579263e-01 0.000000e+00  -4.515229e-02 3.583851e-01 0.000000e+00  -4.453567e-02 3.583493e-01 0.000000e+00  -4.271289e-02 3.576927e-01 0.000000e+00  -3.839840e-02 3.566298e-01 0.000000e+00  -2.924349e-02 3.520542e-01 0.000000e+00  -1.196747e-02 3.386080e-01 0.000000e+00  9.638302e-03 3.232546e-01 0.000000e+00  2.683697e-02 3.142826e-01 0.000000e+00  4.286673e-02 3.052677e-01 0.000000e+00  5.253676e-02 2.971775e-01 0.000000e+00  5.417293e-02 2.895323e-01 0.000000e+00  5.221419e-02 2.798166e-01 0.000000e+00  4.767856e-02 2.570159e-01 0.000000e+00  4.283113e-02 2.271562e-01 0.000000e+00  4.015380e-02 1.986050e-01 0.000000e+00  3.680275e-02 1.671463e-01 0.000000e+00  3.268186e-02 1.436894e-01 0.000000e+00  2.930103e-02 1.265916e-01 0.000000e+00  2.528464e-02 1.105272e-01 0.000000e+00  2.175872e-02 1.000617e-01 0.000000e+00  1.741194e-02 9.100227e-02 0.000000e+00  1.397649e-02 8.563424e-02 0.000000e+00  1.251592e-02 8.337122e-02 0.000000e+00  9.794303e-03 7.754236e-02 0.000000e+00  7.758961e-03 7.397158e-02 0.000000e+00  4.579249e-03 7.188562e-02 0.000000e+00  2.691612e-03 7.384340e-02 0.000000e+00  1.591627e-03 7.936587e-02 0.000000e+00  1.324558e-03 8.417009e-02 0.000000e+00  7.997490e-04 9.038336e-02 0.000000e+00  2.471653e-04 9.845277e-02 0.000000e+00  1.022744e-04 1.115475e-01 0.000000e+00  1.118142e-03 1.216463e-01 0.000000e+00  2.020682e-03 1.270735e-01 0.000000e+00  2.598601e-03 1.313477e-01 0.000000e+00  0.000000e+00 0.000000e+00 0.000000e+00  0.000000e+00 0.000000e+00 0.000000e+00  1.724671e-02 1.770952e-01 0.000000e+00  -7.612114e-03 1.992289e-01 0.000000e+00  2.744375e-03 1.324114e-01 0.000000e+00  2.824270e-03 1.329756e-01 0.000000e+00  2.963951e-03 1.337154e-01 0.000000e+00  3.180678e-03 1.346597e-01 0.000000e+00  3.803599e-03 1.369181e-01 0.000000e+00  4.191560e-03 1.382559e-01 0.000000e+00  4.646958e-03 1.399552e-01 0.000000e+00  5.419555e-03 1.444140e-01 0.000000e+00  5.870596e-03 1.562980e-01 0.000000e+00  5.833053e-03 1.596957e-01 0.000000e+00  6.902271e-03 1.777441e-01 0.000000e+00  7.495750e-03 1.805252e-01 0.000000e+00  9.471463e-03 1.840713e-01 0.000000e+00  1.031693e-02 1.847023e-01 0.000000e+00  1.204254e-02 1.849140e-01 0.000000e+00  1.295072e-02 1.842917e-01 0.000000e+00  1.305817e-02 1.835726e-01 0.000000e+00  1.302814e-02 1.811920e-01 0.000000e+00  1.266614e-02 1.797743e-01 0.000000e+00  1.011963e-02 1.785265e-01 0.000000e+00  -4.987978e-03 1.898802e-01 0.000000e+00  -1.304474e-02 2.012751e-01 0.000000e+00  -1.518274e-02 2.050289e-01 0.000000e+00  -1.590044e-02 2.060801e-01 0.000000e+00  -2.141807e-02 2.171516e-01 0.000000e+00  -2.170674e-02 2.205044e-01 0.000000e+00  -1.883118e-02 2.371011e-01 0.000000e+00  -1.802695e-02 3.061961e-01 0.000000e+00  -2.290167e-02 3.347155e-01 0.000000e+00  -2.896551e-02 3.433129e-01 0.000000e+00  -3.760872e-02 3.516929e-01 0.000000e+00  -4.086765e-02 3.541236e-01 0.000000e+00  -4.516768e-02 3.567613e-01 0.000000e+00  -4.135910e-02 3.574711e-01 0.000000e+00  -1.800724e-03 3.321487e-01 0.000000e+00  5.424642e-02 2.927158e-01 0.000000e+00  4.490957e-02 2.404359e-01 0.000000e+00  3.830459e-02 1.811671e-01 0.000000e+00  2.766092e-02 1.193424e-01 0.000000e+00  1.926525e-02 9.457078e-02 0.000000e+00  1.538924e-02 8.759326e-02 0.000000e+00  1.127711e-02 8.086638e-02 0.000000e+00  6.413389e-03 7.253068e-02 0.000000e+00  2.079288e-03 7.625474e-02 0.000000e+00  8.007252e-05 1.051103e-01 0.000000e+00  5.833099e-04 1.174495e-01 0.000000e+00  1.635021e-03 1.249175e-01 0.000000e+00  2.189860e-03 1.286141e-01 0.000000e+00  2.352507e-03 1.298158e-01 0.000000e+00  2.487844e-03 1.306976e-01 0.000000e+00  0.000000e+00 0.000000e+00 0.000000e+00  0.000000e+00 0.000000e+00 0.000000e+00  0.000000e+00 0.000000e+00 0.000000e+00  0.000000e+00 0.000000e+00 0.000000e+00  0.000000e+00 0.000000e+00 0.000000e+00  0.000000e+00 0.000000e+00 0.000000e+00  0.000000e+00 0.000000e+00 0.000000e+00  0.000000e+00 0.000000e+00 0.000000e+00  0.000000e+00 0.000000e+00 0.000000e+00  3.182738e-04 2.830443e-02 0.000000e+00  9.453682e-04 5.626068e-02 0.000000e+00  2.003542e-03 8.306304e-02 0.000000e+00  3.613769e-03 1.078538e-01 0.000000e+00  5.762513e-03 1.297362e-01 0.000000e+00  8.383094e-03 1.480566e-01 0.000000e+00  1.143863e-02 1.619590e-01 0.000000e+00  1.433165e-02 1.708206e-01 0.000000e+00  1.636642e-02 1.754466e-01 0.000000e+00  -8.435235e-03 2.009761e-01 0.000000e+00  -9.809663e-03 2.047603e-01 0.000000e+00  -1.070181e-02 2.094879e-01 0.000000e+00  -9.517711e-03 2.123068e-01 0.000000e+00  -5.361585e-03 2.071256e-01 0.000000e+00  -1.200090e-04 1.881281e-01 0.000000e+00  3.103294e-03 1.548986e-01 0.000000e+00  3.259261e-03 1.111885e-01 0.000000e+00  1.557615e-03 5.999565e-02 0.000000e+00  1.859465e-02 1.778559e-01 0.000000e+00  2.034970e-02 1.792407e-01 0.000000e+00  2.057729e-02 1.809388e-01 0.000000e+00  1.817996e-02 1.830667e-01 0.000000e+00  1.335336e-02 1.858857e-01 0.000000e+00  7.383844e-03 1.893453e-01 0.000000e+00  1.704207e-03 1.929444e-01 0.000000e+00  -2.872960e-03 1.960619e-01 0.000000e+00  -6.075550e-03 1.982613e-01 0.000000e+00  5.044020e-02 2.707597e-01 0.000000e+00  1.623154e-02 1.252989e-01 0.000000e+00  -6.228060e-03 1.966341e-01 0.000000e+00  1.771952e-02 1.785633e-01 0.000000e+00  8.690084e-04 7.590449e-02 0.000000e+00  3.775671e-03 1.218671e-01 0.000000e+00  4.789001e-03 5.228371e-02 0.000000e+00  -8.127931e-03 2.202289e-01 0.000000e+00  4.481619e-03 1.876662e-01 0.000000e+00  1.146240e-02 1.669870e-01 0.000000e+00  -1.288737e-02 2.121268e-01 0.000000e+00  1.735988e-02 1.771608e-01 0.000000e+00  -7.764972e-03 1.994594e-01 0.000000e+00  7.923087e-04 3.836085e-02 0.000000e+00  1.289079e-04 1.867934e-02 0.000000e+00  1.229410e-02 1.792859e-01 0.000000e+00  -7.016659e-03 3.035123e-01 0.000000e+00  -2.043508e-02 3.337641e-01 0.000000e+00  -4.153137e-02 3.562513e-01 0.000000e+00  4.628653e-02 2.783879e-01 0.000000e+00  1.197588e-02 1.840062e-01 0.000000e+00  2.773740e-03 1.316095e-01 0.000000e+00  1.539016e-02 1.819756e-01 0.000000e+00  5.148362e-03 8.814425e-02 0.000000e+00  6.684154e-03 1.843367e-01 0.000000e+00  9.171414e-03 6.379290e-02 0.000000e+00  3.194888e-02 1.796436e-01 0.000000e+00  -3.213676e-04 4.044905e-02 0.000000e+00  1.637312e-02 1.757873e-01 0.000000e+00  -1.030986e-02 2.031197e-01 0.000000e+00  6.354058e-03 1.406735e-01 0.000000e+00  3.566201e-04 4.453744e-02 0.000000e+00  -3.954899e-03 1.929486e-01 0.000000e+00  2.231124e-03 9.895292e-02 0.000000e+00  9.451846e-04 9.318177e-02 0.000000e+00  1.585063e-02 1.772461e-01 0.000000e+00  -1.052796e-02 2.009620e-01 0.000000e+00  -2.821377e-03 1.949556e-01 0.000000e+00  1.958692e-02 1.797400e-01 0.000000e+00  -1.023608e-02 2.157693e-01 0.000000e+00  6.639920e-05 1.840553e-02 0.000000e+00  2.605739e-03 1.209667e-01 0.000000e+00  3.158366e-03 5.996723e-02 0.000000e+00  1.710368e-02 9.875568e-02 0.000000e+00  -1.456831e-02 2.263598e-01 0.000000e+00  8.998442e-03 1.867015e-01 0.000000e+00  9.635127e-03 1.659260e-01 0.000000e+00  -1.071959e-02 2.124075e-01 0.000000e+00  1.270888e-02 1.790851e-01 0.000000e+00  4.460901e-02 2.905218e-01 0.000000e+00  1.157035e-02 1.817473e-01 0.000000e+00  1.170831e-02 2.939256e-01 0.000000e+00  -1.185810e-03 2.751226e-01 0.000000e+00  -3.291114e-02 3.502344e-01 0.000000e+00  -1.309641e-02 3.196336e-01 0.000000e+00  -4.382457e-02 3.575628e-01 0.000000e+00  4.874326e-02 2.696990e-01 0.000000e+00  -1.970658e-02 3.254117e-01 0.000000e+00  5.108398e-02 2.870944e-01 0.000000e+00  -2.505060e-02 3.395545e-01 0.000000e+00  -4.399760e-02 3.566328e-01 0.000000e+00  -3.768600e-02 3.554015e-01 0.000000e+00  1.262939e-02 1.835260e-01 0.000000e+00  1.158693e-02 1.846476e-01 0.000000e+00  1.244804e-02 1.845504e-01 0.000000e+00  3.120668e-03 1.328534e-01 0.000000e+00  2.593718e-03 1.308586e-01 0.000000e+00  2.773069e-03 1.320416e-01 0.000000e+00  1.717853e-02 1.991757e-01 0.000000e+00  5.029706e-03 5.704242e-02 0.000000e+00  3.907511e-04 1.921224e-01 0.000000e+00  -7.000391e-04 2.735973e-02 0.000000e+00  -7.204480e-03 1.987234e-01 0.000000e+00  5.279470e-03 1.293021e-01 0.000000e+00  4.391410e-03 3.429227e-02 0.000000e+00  2.179691e-02 1.153262e-01 0.000000e+00  1.388097e-02 1.707936e-01 0.000000e+00  1.404248e-02 1.840830e-01 0.000000e+00  1.508085e-02 1.745423e-01 0.000000e+00  1.860871e-02 1.812471e-01 0.000000e+00  -9.321199e-05 2.945356e-02 0.000000e+00  6.130664e-05 1.984915e-01 0.000000e+00  1.837219e-02 1.780920e-01 0.000000e+00  5.544560e-03 1.389756e-01 0.000000e+00  1.381680e-03 4.424589e-02 0.000000e+00  5.148916e-03 1.278905e-01 0.000000e+00  -1.310824e-02 2.064984e-01 0.000000e+00  6.614465e-04 6.288821e-02 0.000000e+00  1.307303e-03 7.179206e-02 0.000000e+00  9.429495e-03 1.563263e-01 0.000000e+00  7.484395e-03 1.834608e-01 0.000000e+00  2.757204e-03 8.008488e-02 0.000000e+00  3.242047e-02 2.425820e-01 0.000000e+00  1.315252e-02 1.797539e-01 0.000000e+00  -1.122796e-02 2.082350e-01 0.000000e+00  -1.388709e-02 2.181671e-01 0.000000e+00  3.646689e-02 1.805659e-01 0.000000e+00  1.674877e-02 1.763711e-01 0.000000e+00  -9.309013e-03 1.973554e-01 0.000000e+00  9.596628e-03 8.190436e-02 0.000000e+00  1.933273e-03 1.090153e-01 0.000000e+00  -3.007077e-03 1.905708e-01 0.000000e+00  -6.652280e-03 1.962444e-01 0.000000e+00  1.389718e-03 9.042422e-02 0.000000e+00  7.303379e-04 1.058687e-01 0.000000e+00  8.425834e-04 8.781131e-02 0.000000e+00  -8.237348e-03 2.131126e-01 0.000000e+00  1.592577e-03 5.821880e-02 0.000000e+00  -1.160709e-02 2.137379e-01 0.000000e+00  1.366280e-02 1.762555e-01 0.000000e+00  -1.227160e-02 2.027082e-01 0.000000e+00  2.268516e-03 1.239305e-01 0.000000e+00  -1.876400e-02 2.259853e-01 0.000000e+00  6.654286e-03 1.575099e-01 0.000000e+00  4.473969e-02 2.436621e-01 0.000000e+00  1.267501e-02 1.808200e-01 0.000000e+00  2.774742e-03 2.861397e-01 0.000000e+00  -1.589829e-02 3.106920e-01 0.000000e+00  1.005425e-02 1.799055e-01 0.000000e+00  -3.148179e-03 3.162496e-01 0.000000e+00  -9.882097e-03 2.916026e-01 0.000000e+00  -2.891317e-02 3.453351e-01 0.000000e+00  9.700838e-03 3.086836e-01 0.000000e+00  -2.510531e-02 3.447615e-01 0.000000e+00  1.100248e-02 1.837912e-01 0.000000e+00  -3.845884e-02 3.537551e-01 0.000000e+00  -4.480920e-02 3.573932e-01 0.000000e+00  -3.330498e-02 3.525102e-01 0.000000e+00  -4.139641e-02 3.569318e-01 0.000000e+00  -2.231133e-02 3.338194e-01 0.000000e+00  -4.232880e-02 3.556037e-01 0.000000e+00  -4.459070e-02 3.581039e-01 0.000000e+00  3.726663e-03 1.341706e-01 0.000000e+00  2.897005e-03 1.325011e-01 0.000000e+00  2.444207e-03 1.300542e-01 0.000000e+00  2.690873e-03 1.316001e-01 0.000000e+00  -9.027760e-03 2.015657e-01 0.000000e+00  3.230853e-03 3.624315e-02 0.000000e+00  1.001964e-02 1.271027e-01 0.000000e+00  4.555069e-04 2.238236e-01 0.000000e+00  1.092593e-02 7.156009e-02 0.000000e+00  2.177251e-04 5.363189e-02 0.000000e+00  9.946431e-03 7.841257e-02 0.000000e+00  1.754726e-02 1.801377e-01 0.000000e+00  3.917278e-03 1.711751e-01 0.000000e+00  1.399100e-02 1.666992e-01 0.000000e+00  2.481759e-02 1.452571e-01 0.000000e+00  -7.514994e-04 1.739830e-02 0.000000e+00  1.965505e-02 2.295237e-01 0.000000e+00  3.559422e-03 1.118175e-01 0.000000e+00  -5.610492e-03 2.110666e-01 0.000000e+00  -1.001031e-02 2.014404e-01 0.000000e+00  7.972986e-03 1.564670e-01 0.000000e+00  -3.421370e-03 1.938069e-01 0.000000e+00  6.688464e-03 1.392107e-01 0.000000e+00  1.551498e-02 1.742398e-01 0.000000e+00  1.655863e-02 1.764154e-01 0.000000e+00  1.161252e-02 1.652919e-01 0.000000e+00  3.014590e-03 5.191945e-02 0.000000e+00  -6.099434e-03 1.972139e-01 0.000000e+00  8.617312e-05 2.694631e-02 0.000000e+00  -5.131161e-03 1.969633e-01 0.000000e+00  4.969639e-03 1.303480e-01 0.000000e+00  1.505746e-03 2.940634e-02 0.000000e+00  4.721488e-04 3.438027e-02 0.000000e+00  -1.541743e-02 2.118102e-01 0.000000e+00  7.189159e-04 5.437688e-02 0.000000e+00  1.676861e-02 1.826303e-01 0.000000e+00  2.518107e-02 1.258148e-01 0.000000e+00  1.412814e-02 1.722004e-01 0.000000e+00  1.332031e-02 1.732754e-01 0.000000e+00  9.574340e-03 1.813444e-01 0.000000e+00  2.713743e-04 1.907336e-01 0.000000e+00  -5.064785e-05 1.577716e-02 0.000000e+00  4.946040e-03 1.352278e-01 0.000000e+00  9.725174e-03 1.843450e-01 0.000000e+00  2.316202e-03 9.293424e-02 0.000000e+00  8.090136e-04 7.775023e-02 0.000000e+00  -3.921688e-04 4.125363e-02 0.000000e+00  3.181680e-03 1.865314e-01 0.000000e+00  -1.055813e-02 2.069300e-01 0.000000e+00  3.287605e-03 3.542298e-02 0.000000e+00  3.879249e-02 2.178084e-01 0.000000e+00  -1.280449e-03 1.390691e-02 0.000000e+00  6.015620e-03 1.464094e-01 0.000000e+00  2.049832e-03 1.035229e-01 0.000000e+00  -1.183694e-02 2.066261e-01 0.000000e+00  -1.296151e-02 2.044017e-01 0.000000e+00  1.674584e-03 6.419544e-02 0.000000e+00  1.405378e-02 1.784332e-01 0.000000e+00  1.786258e-02 1.040196e-01 0.000000e+00  1.629193e-02 1.767697e-01 0.000000e+00  7.889021e-03 6.911980e-02 0.000000e+00  1.386918e-03 8.196666e-02 0.000000e+00  -9.859483e-03 1.990414e-01 0.000000e+00  6.973407e-03 7.444775e-02 0.000000e+00  -1.106079e-02 2.185080e-01 0.000000e+00  -1.623471e-02 2.204392e-01 0.000000e+00  3.089694e-02 1.461003e-01 0.000000e+00  -7.528102e-03 1.940852e-01 0.000000e+00  2.983766e-03 1.185527e-01 0.000000e+00  -1.311860e-02 2.153756e-01 0.000000e+00  -1.007440e-02 2.138137e-01 0.000000e+00  -1.154817e-02 2.110417e-01 0.000000e+00  3.021349e-02 2.716890e-01 0.000000e+00  -1.131768e-02 1.997844e-01 0.000000e+00  -8.480170e-04 1.875643e-01 0.000000e+00  1.368627e-03 1.147558e-01 0.000000e+00  1.508550e-03 1.110223e-01 0.000000e+00  4.869965e-04 9.707042e-02 0.000000e+00  1.310032e-03 7.905341e-02 0.000000e+00  1.207573e-02 1.771381e-01 0.000000e+00  8.005684e-03 1.668302e-01 0.000000e+00  -1.860422e-02 2.320826e-01 0.000000e+00  1.083144e-03 1.187666e-01 0.000000e+00  -1.346874e-02 2.037912e-01 0.000000e+00  2.878557e-03 1.287064e-01 0.000000e+00  4.420361e-02 2.611683e-01 0.000000e+00  -2.035478e-02 2.226580e-01 0.000000e+00  4.263498e-02 2.248921e-01 0.000000e+00  1.278407e-02 1.801364e-01 0.000000e+00  1.912771e-03 3.013864e-01 0.000000e+00  -9.968849e-03 2.794577e-01 0.000000e+00  1.006319e-02 1.825452e-01 0.000000e+00  -1.725867e-02 3.226300e-01 0.000000e+00  1.242446e-02 1.823391e-01 0.000000e+00  -1.371557e-02 3.330408e-01 0.000000e+00  -1.588677e-02 3.003789e-01 0.000000e+00  -2.283012e-02 3.459860e-01 0.000000e+00  -4.333887e-02 3.577531e-01 0.000000e+00  -2.400432e-02 3.373548e-01 0.000000e+00  -4.499317e-02 3.579759e-01 0.000000e+00  1.095046e-02 1.845697e-01 0.000000e+00  3.531328e-03 1.346059e-01 0.000000e+00  2.313041e-03 1.290341e-01 0.000000e+00  2.744526e-03 2.050086e-01 0.000000e+00  8.356775e-03 8.854850e-02 0.000000e+00  2.608145e-02 1.880600e-01 0.000000e+00  1.819492e-02 1.783525e-01 0.000000e+00  4.067180e-04 3.820180e-02 0.000000e+00  2.119126e-02 1.657536e-01 0.000000e+00  -8.557404e-03 2.000728e-01 0.000000e+00  -2.819129e-03 2.026126e-01 0.000000e+00  1.669708e-02 1.012722e-01 0.000000e+00  3.832399e-03 3.275930e-02 0.000000e+00  8.246862e-03 1.570441e-01 0.000000e+00  6.236188e-04 6.117962e-02 0.000000e+00  4.530744e-03 1.196484e-01 0.000000e+00  -3.379328e-04 2.290722e-02 0.000000e+00  1.681996e-02 1.787014e-01 0.000000e+00  4.300272e-03 1.892175e-01 0.000000e+00  1.655946e-04 1.749356e-02 0.000000e+00  -2.034336e-04 9.807530e-03 0.000000e+00  -1.047654e-02 2.051624e-01 0.000000e+00  1.866539e-02 1.797276e-01 0.000000e+00  6.477092e-03 5.184314e-02 0.000000e+00  1.743932e-02 9.688372e-02 0.000000e+00  2.808898e-03 1.899937e-02 0.000000e+00  1.412437e-02 8.322988e-02 0.000000e+00  2.819490e-02 1.444867e-01 0.000000e+00  6.524819e-03 1.475209e-01 0.000000e+00  -3.772296e-03 1.948825e-01 0.000000e+00  5.728883e-03 2.360275e-01 0.000000e+00  6.031561e-05 4.220382e-02 0.000000e+00  3.912543e-04 5.286006e-02 0.000000e+00  1.550918e-02 1.801302e-01 0.000000e+00  3.535252e-03 1.849403e-01 0.000000e+00  1.215554e-02 1.817025e-01 0.000000e+00  -8.822517e-03 1.991618e-01 0.000000e+00  3.044463e-03 1.118882e-01 0.000000e+00  1.308344e-02 1.715291e-01 0.000000e+00  4.540650e-03 1.313722e-01 0.000000e+00  2.277414e-02 2.527157e-01 0.000000e+00  1.261803e-02 1.789689e-01 0.000000e+00  2.634217e-03 4.885273e-02 0.000000e+00  6.782744e-04 7.246495e-02 0.000000e+00  9.370639e-05 5.175690e-02 0.000000e+00  -1.253392e-02 2.211377e-01 0.000000e+00  1.937124e-03 3.771193e-02 0.000000e+00  1.420372e-04 1.895175e-01 0.000000e+00  9.585280e-03 1.602806e-01 0.000000e+00  -1.146848e-02 2.041881e-01 0.000000e+00  -6.326108e-03 2.251980e-01 0.000000e+00  -1.334934e-02 2.095492e-01 0.000000e+00  4.053101e-02 2.073403e-01 0.000000e+00  -1.166375e-02 2.034760e-01 0.000000e+00  2.281345e-02 1.176616e-01 0.000000e+00  3.469054e-02 2.104561e-01 0.000000e+00  -7.943146e-03 2.163475e-01 0.000000e+00  1.315620e-03 9.718663e-02 0.000000e+00  9.217222e-04 8.475562e-02 0.000000e+00  3.888281e-02 2.528404e-01 0.000000e+00  5.695460e-03 1.411048e-01 0.000000e+00  9.532288e-03 1.630851e-01 0.000000e+00  -7.147786e-04 3.236980e-02 0.000000e+00  -7.661092e-03 1.963955e-01 0.000000e+00  1.255024e-02 8.876376e-02 0.000000e+00  4.030648e-03 6.675420e-02 0.000000e+00  1.148058e-02 1.730973e-01 0.000000e+00  -6.431333e-03 1.941982e-01 0.000000e+00  5.912137e-03 7.046640e-02 0.000000e+00  1.238599e-02 8.751126e-02 0.000000e+00  -1.214083e-02 2.017200e-01 0.000000e+00  -1.513845e-02 2.077989e-01 0.000000e+00  3.756487e-03 1.294922e-01 0.000000e+00  -1.565783e-02 2.166987e-01 0.000000e+00  -1.055706e-02 1.978976e-01 0.000000e+00  1.471298e-02 1.745648e-01 0.000000e+00  1.231049e-03 7.026801e-02 0.000000e+00  1.113798e-03 1.020064e-01 0.000000e+00  -1.447044e-02 2.126975e-01 0.000000e+00  1.354538e-02 1.778703e-01 0.000000e+00  7.488145e-04 9.541840e-02 0.000000e+00  -1.216971e-02 2.171841e-01 0.000000e+00  7.408538e-03 1.811209e-01 0.000000e+00  -4.721296e-03 1.907323e-01 0.000000e+00  2.262478e-04 1.068267e-01 0.000000e+00  9.462159e-04 8.050057e-02 0.000000e+00  -1.899170e-02 2.203476e-01 0.000000e+00  5.249444e-03 1.388641e-01 0.000000e+00  1.441991e-02 1.756280e-01 0.000000e+00  6.052156e-03 1.522090e-01 0.000000e+00  1.094124e-02 8.257876e-02 0.000000e+00  2.673135e-02 1.291639e-01 0.000000e+00  3.315068e-02 2.921128e-01 0.000000e+00  -1.567507e-02 2.308532e-01 0.000000e+00  7.990778e-04 8.