<?xml version="1.0"?>
<VTKFile type="UnstructuredGrid"  version="0.1"  >
<UnstructuredGrid>
<Piece  NumberOfPoints="2868" NumberOfCells="5400">
<Points>
<DataArray  type="Float32"  NumberOfComponents="3"  format="ascii">0.534923 0.326073 0  0.510642 0.314196 0  0.466125 0.293082 0  0.436448 0.281205 0  0.409468 0.275927 0  0.368998 0.270648 0  0.35281 0.275927 0  0.381139 0.302319 0  0.405421 0.326073 0  0.410817 0.33531 0  0.408119 0.349826 0  0.400025 0.357744 0  0.375743 0.368301 0  0.329878 0.392055 0  0.297502 0.432963 0  0.282663 0.476511 0  0.285361 0.524018 0  0.298851 0.572845 0  0.317737 0.604516 0  0.337972 0.636187 0  0.360904 0.674457 0  0.368998 0.69953 0  0.359555 0.721964 0  0.360904 0.757594 0  0.370347 0.766831 0  0.381139 0.762872 0  0.390582 0.741758 0  0.404072 0.720644 0  0.424307 0.707448 0  0.447239 0.702169 0  0.480964 0.704808 0  0.479615 0.688973 0  0.468823 0.675776 0  0.447239 0.669178 0  0.428354 0.669178 0  0.410817 0.6639 0  0.404072 0.653343 0  0.395978 0.628269 0  0.387884 0.59132 0  0.389233 0.576804 0  0.397327 0.557009 0  0.410817 0.547772 0  0.424307 0.546452 0  0.437797 0.55305 0  0.44589 0.566247 0  0.441843 0.582082 0  0.439145 0.597918 0  0.449937 0.609795 0  0.468823 0.603196 0  0.479615 0.59 0  0.489058 0.570205 0  0.494454 0.546452 0  0.505246 0.522699 0  0.522783 0.509502 0  0.55246 0.494986 0  0.586185 0.484429 0  0.615863 0.48047 0  0.64554 0.473872 0  0.667124 0.461995 0  0.683312 0.451438 0  0.696802 0.435603 0  0.703547 0.417128 0  0.71164 0.393374 0  0.718385 0.37226 0  0.72513 0.364342 0  0.739969 0.353785 0  0.745365 0.344548 0  0.745365 0.327393 0  0.737271 0.318155 0  0.718385 0.316835 0  0.700849 0.319475 0  0.677916 0.318155 0  0.650936 0.316835 0  0.610467 0.318155 0  0.57944 0.324753 0  0.559205 0.328712 0  0.53897 0.326073 0  1 1 0  1 0 0  0 0 0  0 1 0  0.532238 0.32476 0  0.528748 0.323052 0  0.52421 0.320833 0  0.518311 0.317947 0  0.503447 0.310783 0  0.494093 0.306347 0  0.481933 0.30058 0  0.452151 0.28749 0  0.392327 0.273691 0  0.379141 0.271971 0  0.360474 0.283066 0  0.369797 0.291752 0  0.391424 0.31238 0  0.399335 0.32012 0  0.40958 0.341964 0  0.393939 0.36039 0  0.386028 0.36383 0  0.364248 0.374254 0  0.349304 0.381994 0  0.315801 0.409841 0  0.292986 0.551616 0  0.350934 0.657818 0  0.360127 0.737055 0  0.360566 0.748664 0  0.385245 0.753692 0  0.396447 0.732578 0  0.466301 0.703661 0  0.459439 0.672908 0  0.418442 0.666195 0  0.400553 0.642441 0  0.39255 0.612619 0  0.389913 0.60058 0  0.392752 0.568197 0  0.444131 0.573132 0  0.458149 0.606926 0  0.500554 0.533026 0  0.571522 0.489019 0  0.632637 0.476741 0  0.689177 0.444553 0  0.708121 0.403702 0  0.715453 0.38144 0  0.732406 0.359166 0  0.745365 0.337089 0  0.72906 0.317581 0  0.629879 0.317522 0  0.59293 0.321884 0  0.568003 0.326991 0  0.55202 0.327775 0  0.546493 0.327054 0  0.542241 0.326499 0  1 0.9 0  1 0.8 0  1 0.7 0  1 0.6 0  1 0.5 0  1 0.4 0  1 0.3 0  1 0.2 0  1 0.1 0  0.9 0 0  0.8 0 0  0.7 0 0  0.6 0 0  0.5 0 0  0.4 0 0  0.3 0 0  0.2 0 0  0.1 0 0  0.1 1 0  0.2 1 0  0.3 1 0  0.4 1 0  0.5 1 0  0.6 1 0  0.7 1 0  0.8 1 0  0.9 1 0  0 0.1 0  0 0.2 0  0 0.3 0  0 0.4 0  0 0.5 0  0 0.6 0  0 0.7 0  0 0.8 0  0 0.9 0  0.535686 0.503191 0  0.753987 0.733359 0  0.167145 0.741436 0  0.173378 0.257204 0  0.733497 0.159862 0  0.554096 0.15788 0  0.849187 0.479053 0  0.488793 0.838452 0  0.138507 0.5592 0  0.30686 0.154944 0  0.348904 0.890523 0  0.058006 0.065099 0  0.069849 0.937917 0  0.93633 0.939704 0  0.934625 0.053613 0  0.343397 0.333452 0  0.473272 0.639943 0  0.433266 0.638072 0  0.415174 0.58269 0  0.533435 0.545042 0  0.390848 0.340652 0  0.53655 0.320242 0  0.127966 0.393775 0  0.83861 0.850455 0  0.635242 0.85513 0  0.852158 0.633441 0  0.653427 0.626848 0  0.861226 0.24292 0  0.166128 0.12976 0  0.216875 0.869871 0  0.458305 0.11179 0  0.84446 0.101633 0  0.202024 0.642528 0  0.644825 0.115855 0  0.671342 0.218358 0  0.251354 0.286186 0  0.262388 0.75153 0  0.063044 0.751571 0  0.068189 0.242962 0  0.435781 0.905395 0  0.934144 0.451133 0  0.568393 0.237622 0  0.814984 0.395506 0  0.752951 0.517227 0  0.456254 0.780699 0  0.073352 0.531116 0  0.337731 0.206071 0  0.363213 0.960371 0  0.330742 0.363592 0  0.516613 0.55705 0  0.369057 0.332992 0  0.500926 0.617309 0  0.498004 0.665534 0  0.412142 0.61178 0  0.454233 0.636604 0  0.422782 0.567496 0  0.541193 0.52148 0  0.439761 0.65557 0  0.5163 0.533672 0  0.414775 0.64562 0  0.40073 0.576135 0  0.430362 0.588034 0  0.385432 0.351492 0  0.400298 0.335397 0  0.398325 0.348194 0  0.528702 0.314885 0  0.540814 0.322334 0  0.534477 0.322953 0  0.619095 0.743583 0  0.885162 0.737972 0  0.08076 0.668849 0  0.90734 0.36634 0  0.094687 0.868937 0  0.759838 0.912152 0  0.901518 0.540898 0  0.747285 0.607479 0  0.229182 0.071641 0  0.069154 0.450091 0  0.244775 0.203309 0  0.076534 0.331755 0  0.897847 0.167826 0  0.578909 0.911415 0  0.077133 0.146341 0  0.477215 0.203448 0  0.922631 0.869341 0  0.517415 0.074785 0  0.297026 0.827793 0  0.783271 0.246505 0  0.74519 0.061079 0  0.36033 0.069068 0  0.210313 0.475228 0  0.859426 0.928758 0  0.574548 0.609182 0  0.243069 0.383398 0  0.283099 0.934598 0  0.417416 0.843141 0  0.643942 0.553164 0  0.112687 0.079336 0  0.281357 0.658386 0  0.765043 0.436177 0  0.611361 0.198486 0  0.234496 0.58911 0  0.206479 0.702638 0  0.679608 0.155818 0  0.62682 0.259978 0  0.690538 0.264164 0  0.448938 0.956308 0  0.808154 0.328403 0  0.379583 0.91913 0  0.308083 0.297769 0  0.312358 0.730249 0  0.563101 0.278576 0  0.435597 0.746198 0  0.385475 0.225229 0  0.572248 0.518034 0  0.357864 0.35422 0  0.497647 0.641694 0  0.458101 0.655768 0  0.360474 0.310727 0  0.467038 0.620139 0  0.47798 0.659909 0  0.41102 0.628072 0  0.48324 0.609015 0  0.427544 0.617941 0  0.388633 0.328253 0  0.405336 0.599404 0  0.408351 0.565178 0  0.42395 0.600985 0  0.431562 0.576523 0  0.424905 0.655198 0  0.398064 0.58782 0  0.427739 0.557934 0  0.519291 0.303443 0  0.53142 0.320293 0  0.5449 0.323642 0  0.537166 0.323513 0  0.153974 0.920841 0  0.918186 0.67343 0  0.759946 0.820588 0  0.537526 0.783091 0  0.816532 0.545843 0  0.813991 0.178083 0  0.836774 0.702023 0  0.149815 0.318856 0  0.662287 0.923338 0  0.680146 0.791192 0  0.708961 0.663172 0  0.937278 0.287318 0  0.574622 0.688166 0  0.589474 0.076262 0  0.502822 0.926683 0  0.222269 0.811068 0  0.380457 0.164786 0  0.15321 0.684154 0  0.458063 0.051413 0  0.161702 0.056026 0  0.199351 0.198818 0  0.298946 0.095532 0  0.902465 0.795949 0  0.121139 0.791477 0  0.906269 0.112287 0  0.056109 0.822332 0  0.512172 0.13237 0  0.940964 0.741805 0  0.888887 0.408777 0  0.354543 0.825964 0  0.808736 0.068638 0  0.068507 0.394071 0  0.719105 0.563843 0  0.247287 0.149664 0  0.293062 0.237128 0  0.240524 0.434997 0  0.141255 0.623289 0  0.945202 0.160621 0  0.502914 0.247629 0  0.144669 0.480811 0  0.665025 0.060817 0  0.728047 0.224344 0  0.861995 0.313312 0  0.200068 0.534235 0  0.253262 0.965623 0  0.893804 0.49307 0  0.604391 0.572456 0  0.947088 0.345347 0  0.439372 0.227307 0  0.629847 0.159823 0  0.273405 0.880181 0  0.302744 0.776823 0  0.781502 0.295365 0  0.275342 0.349602 0  0.728385 0.472798 0  0.229136 0.246478 0  0.807794 0.480346 0  0.709476 0.112786 0  0.275506 0.694991 0  0.771674 0.394419 0  0.449715 0.861802 0  0.419159 0.799696 0  0.674851 0.503139 0  0.280443 0.61016 0  0.572443 0.192538 0  0.393113 0.87525 0  0.405555 0.948428 0  0.330942 0.934103 0  0.540509 0.597101 0  0.312763 0.668931 0  0.254368 0.540179 0  0.595265 0.25915 0  0.606679 0.234099 0  0.657131 0.279138 0  0.722458 0.279478 0  0.333 0.308056 0  0.351529 0.246142 0  0.455714 0.725794 0  0.585239 0.295143 0  0.340062 0.72492 0  0.545593 0.293773 0  0.555449 0.545426 0  0.414311 0.737314 0  0.590854 0.502323 0  0.350507 0.368444 0  0.484423 0.625665 0  0.483899 0.674542 0  0.378137 0.317274 0  0.446416 0.646404 0  0.373532 0.347654 0  0.446876 0.619769 0  0.466106 0.666068 0  0.437545 0.609254 0  0.434988 0.565726 0  0.41462 0.656829 0  0.418803 0.556961 0  0.398425 0.327446 0  0.517803 0.310421 0  0.549516 0.322918 0  0.57701 0.842889 0  0.829127 0.773906 0  0.643235 0.684732 0  0.134281 0.207734 0  0.865997 0.055966 0  0.680959 0.723345 0  0.165229 0.841555 0  0.54558 0.959672 0  0.783726 0.656439 0  0.913315 0.595533 0  0.699439 0.860667 0  0.785839 0.125076 0  0.551673 0.037713 0  0.920097 0.223214 0  0.206406 0.299726 0  0.087064 0.596401 0  0.935644 0.394252 0  0.964557 0.252582 0  0.230124 0.928346 0  0.120579 0.271764 0  0.857215 0.524082 0  0.767098 0.555147 0  0.936094 0.507131 0  0.804064 0.59585 0  0.700565 0.608273 0  0.429773 0.174231 0  0.117746 0.727333 0  0.538962 0.730231 0  0.862761 0.359173 0  0.821444 0.284046 0  0.193552 0.35818 0  0.234923 0.505555 0  0.193209 0.421217 0  0.220144 0.755896 0  0.594015 0.131642 0  0.283813 0.195855 0  0.517519 0.213961 0  0.553509 0.639116 0  0.280391 0.378018 0  0.852183 0.436817 0  0.746983 0.197173 0  0.821806 0.221318 0  0.449853 0.828453 0  0.883758 0.453926 0  0.183484 0.589542 0  0.348384 0.129314 0  0.255254 0.838525 0  0.504849 0.798516 0  0.320344 0.863432 0  0.611669 0.525425 0  0.265864 0.804962 0  0.72056 0.521442 0  0.613372 0.610122 0  0.481262 0.881068 0  0.655778 0.191988 0  0.701921 0.196918 0  0.565826 0.573181 0  0.46914 0.240927 0  0.343219 0.173284 0  0.888786 0.278502 0  0.244113 0.675093 0  0.739546 0.417914 0  0.784023 0.355942 0  0.326805 0.265549 0  0.248616 0.634948 0  0.789183 0.413964 0  0.764107 0.476606 0  0.32086 0.698956 0  0.334735 0.791464 0  0.53448 0.258468 0  0.395208 0.824575 0  0.309962 0.638947 0  0.263264 0.22712 0  0.756395 0.267254 0  0.639281 0.224663 0  0.358631 0.85116 0  0.309751 0.332089 0  0.663461 0.246436 0  0.424083 0.871774 0  0.269645 0.445719 0  0.272183 0.572741 0  0.624492 0.294638 0  0.717827 0.250266 0  0.408215 0.763744 0  0.485997 0.274924 0  0.288138 0.274311 0  0.410524 0.242487 0  0.741513 0.385737 0  0.691284 0.483519 0  0.515531 0.581849 0  0.463005 0.753402 0  0.681919 0.
[...]
<PointData  Vectors="u"> 
<DataArray  type="Float32"  Name="u"  NumberOfComponents="3" format="ascii">2.038197e-02 1.006582e+00 0.000000e+00  2.678525e-02 1.035538e+00 0.000000e+00  4.022924e-02 1.083309e+00 0.000000e+00  4.466450e-02 1.120006e+00 0.000000e+00  4.673845e-02 1.159790e+00 0.000000e+00  4.719643e-02 1.239711e+00 0.000000e+00  5.853318e-02 1.308439e+00 0.000000e+00  6.932418e-02 1.388855e+00 0.000000e+00  8.872887e-02 1.405650e+00 0.000000e+00  9.423651e-02 1.405685e+00 0.000000e+00  1.012965e-01 1.405613e+00 0.000000e+00  1.039226e-01 1.403764e+00 0.000000e+00  1.059486e-01 1.386386e+00 0.000000e+00  9.482153e-02 1.355364e+00 0.000000e+00  6.435157e-02 1.359609e+00 0.000000e+00  2.872202e-02 1.382007e+00 0.000000e+00  -1.086066e-02 1.414143e+00 0.000000e+00  -4.878154e-02 1.452401e+00 0.000000e+00  -7.157204e-02 1.481819e+00 0.000000e+00  -8.734105e-02 1.506687e+00 0.000000e+00  -9.788120e-02 1.527028e+00 0.000000e+00  -1.012321e-01 1.532864e+00 0.000000e+00  -1.042547e-01 1.538707e+00 0.000000e+00  -1.207868e-01 1.563969e+00 0.000000e+00  -1.356929e-01 1.590069e+00 0.000000e+00  -1.485818e-01 1.617849e+00 0.000000e+00  -1.592356e-01 1.648520e+00 0.000000e+00  -1.560724e-01 1.671494e+00 0.000000e+00  -1.485472e-01 1.698136e+00 0.000000e+00  -1.413034e-01 1.734627e+00 0.000000e+00  -1.276405e-01 1.880058e+00 0.000000e+00  -1.283665e-01 2.044662e+00 0.000000e+00  -1.264709e-01 2.206034e+00 0.000000e+00  -1.372052e-01 2.376500e+00 0.000000e+00  -1.515873e-01 2.467093e+00 0.000000e+00  -1.700086e-01 2.518753e+00 0.000000e+00  -1.870604e-01 2.540785e+00 0.000000e+00  -2.348305e-01 2.593910e+00 0.000000e+00  -3.046847e-01 2.649510e+00 0.000000e+00  -3.175986e-01 2.656739e+00 0.000000e+00  -3.243743e-01 2.663519e+00 0.000000e+00  -3.234034e-01 2.668406e+00 0.000000e+00  -3.218171e-01 2.671746e+00 0.000000e+00  -3.174438e-01 2.671574e+00 0.000000e+00  -3.043827e-01 2.666910e+00 0.000000e+00  -2.732629e-01 2.659258e+00 0.000000e+00  -2.069835e-01 2.626157e+00 0.000000e+00  -8.113598e-02 2.528455e+00 0.000000e+00  7.774769e-02 2.416595e+00 0.000000e+00  2.048724e-01 2.350868e+00 0.000000e+00  3.234777e-01 2.284268e+00 0.000000e+00  3.947932e-01 2.224097e+00 0.000000e+00  4.063516e-01 2.166987e+00 0.000000e+00  3.912875e-01 2.094350e+00 0.000000e+00  3.567108e-01 1.924006e+00 0.000000e+00  3.198814e-01 1.701052e+00 0.000000e+00  2.994970e-01 1.487894e+00 0.000000e+00  2.741468e-01 1.252934e+00 0.000000e+00  2.431445e-01 1.077678e+00 0.000000e+00  2.177351e-01 9.499354e-01 0.000000e+00  1.875429e-01 8.299582e-01 0.000000e+00  1.610280e-01 7.518594e-01 0.000000e+00  1.283891e-01 6.843267e-01 0.000000e+00  1.026305e-01 6.443632e-01 0.000000e+00  9.170503e-02 6.275270e-01 0.000000e+00  7.133832e-02 5.843040e-01 0.000000e+00  5.608966e-02 5.580563e-01 0.000000e+00  3.231131e-02 5.435185e-01 0.000000e+00  1.822492e-02 5.592941e-01 0.000000e+00  1.016080e-02 6.021718e-01 0.000000e+00  8.294275e-03 6.391905e-01 0.000000e+00  4.438818e-03 6.869390e-01 0.000000e+00  4.046993e-04 7.488936e-01 0.000000e+00  -3.809672e-04 8.494434e-01 0.000000e+00  7.703177e-03 9.270524e-01 0.000000e+00  1.480902e-02 9.687447e-01 0.000000e+00  1.944664e-02 1.001456e+00 0.000000e+00  0.000000e+00 0.000000e+00 0.000000e+00  0.000000e+00 0.000000e+00 0.000000e+00  1.332154e-01 1.342206e+00 0.000000e+00  -5.517617e-02 1.504615e+00 0.000000e+00  2.063096e-02 1.009561e+00 0.000000e+00  2.129492e-02 1.013844e+00 0.000000e+00  2.244173e-02 1.019450e+00 0.000000e+00  2.421159e-02 1.026586e+00 0.000000e+00  2.928644e-02 1.043576e+00 0.000000e+00  3.245687e-02 1.053590e+00 0.000000e+00  3.620643e-02 1.066264e+00 0.000000e+00  4.274926e-02 1.099465e+00 0.000000e+00  4.729823e-02 1.188465e+00 0.000000e+00  4.727107e-02 1.214022e+00 0.000000e+00  5.693725e-02 1.350684e+00 0.000000e+00  6.180467e-02 1.371939e+00 0.000000e+00  7.748322e-02 1.399195e+00 0.000000e+00  8.412237e-02 1.404066e+00 0.000000e+00  9.762133e-02 1.405685e+00 0.000000e+00  1.047008e-01 1.400799e+00 0.000000e+00  1.055325e-01 1.395155e+00 0.000000e+00  1.052748e-01 1.376349e+00 0.000000e+00  1.024429e-01 1.364984e+00 0.000000e+00  8.276684e-02 1.353743e+00 0.000000e+00  -3.314533e-02 1.435362e+00 0.000000e+00  -9.415064e-02 1.519670e+00 0.000000e+00  -1.097784e-01 1.546682e+00 0.000000e+00  -1.151493e-01 1.554203e+00 0.000000e+00  -1.565975e-01 1.634517e+00 0.000000e+00  -1.588146e-01 1.659134e+00 0.000000e+00  -1.370661e-01 1.781642e+00 0.000000e+00  -1.277456e-01 2.291711e+00 0.000000e+00  -1.622564e-01 2.500205e+00 0.000000e+00  -2.058623e-01 2.562614e+00 0.000000e+00  -2.678627e-01 2.623368e+00 0.000000e+00  -2.912358e-01 2.640953e+00 0.000000e+00  -3.219629e-01 2.660001e+00 0.000000e+00  -2.946299e-01 2.665321e+00 0.000000e+00  -6.529873e-03 2.481505e+00 0.000000e+00  4.071551e-01 2.190789e+00 0.000000e+00  3.356518e-01 1.800200e+00 0.000000e+00  2.854968e-01 1.357664e+00 0.000000e+00  2.053994e-01 8.957847e-01 0.000000e+00  1.423005e-01 7.109169e-01 0.000000e+00  1.132155e-01 6.589431e-01 0.000000e+00  8.243924e-02 6.089198e-01 0.000000e+00  4.598125e-02 5.476865e-01 0.000000e+00  1.373551e-02 5.781124e-01 0.000000e+00  -7.142614e-04 8.000088e-01 0.000000e+00  3.474105e-03 8.947967e-01 0.000000e+00  1.177624e-02 9.521881e-01 0.000000e+00  1.616828e-02 9.805516e-01 0.000000e+00  1.747416e-02 9.897499e-01 0.000000e+00  1.855952e-02 9.964913e-01 0.000000e+00  0.000000e+00 0.000000e+00 0.000000e+00  0.000000e+00 0.000000e+00 0.000000e+00  0.000000e+00 0.000000e+00 0.000000e+00  0.000000e+00 0.000000e+00 0.000000e+00  0.000000e+00 0.000000e+00 0.000000e+00  0.000000e+00 0.000000e+00 0.000000e+00  0.000000e+00 0.000000e+00 0.000000e+00  0.000000e+00 0.000000e+00 0.000000e+00  0.000000e+00 0.000000e+00 0.000000e+00  2.349559e-03 2.143006e-01 0.000000e+00  7.050230e-03 4.263858e-01 0.000000e+00  1.518989e-02 6.301724e-01 0.000000e+00  2.782564e-02 8.188136e-01 0.000000e+00  4.478618e-02 9.850378e-01 0.000000e+00  6.531369e-02 1.123731e+00 0.000000e+00  8.894117e-02 1.228621e+00 0.000000e+00  1.111047e-01 1.295243e+00 0.000000e+00  1.265754e-01 1.329882e+00 0.000000e+00  -6.124106e-02 1.517476e+00 0.000000e+00  -7.134175e-02 1.545166e+00 0.000000e+00  -7.783919e-02 1.579365e+00 0.000000e+00  -6.898891e-02 1.598773e+00 0.000000e+00  -3.819162e-02 1.558214e+00 0.000000e+00  5.748583e-04 1.414476e+00 0.000000e+00  2.423408e-02 1.164380e+00 0.000000e+00  2.498110e-02 8.358297e-01 0.000000e+00  1.188918e-02 4.511099e-01 0.000000e+00  1.433708e-01 1.347876e+00 0.000000e+00  1.566001e-01 1.358060e+00 0.000000e+00  1.581742e-01 1.370357e+00 0.000000e+00  1.396997e-01 1.385699e+00 0.000000e+00  1.027574e-01 1.406210e+00 0.000000e+00  5.731546e-02 1.431620e+00 0.000000e+00  1.436004e-02 1.458183e+00 0.000000e+00  -1.998729e-02 1.481223e+00 0.000000e+00  -4.381819e-02 1.497474e+00 0.000000e+00  3.777371e-01 2.026675e+00 0.000000e+00  1.221597e-01 9.408834e-01 0.000000e+00  -4.454926e-02 1.485374e+00 0.000000e+00  1.376796e-01 1.353447e+00 0.000000e+00  5.962756e-03 5.757606e-01 0.000000e+00  2.905358e-02 9.266359e-01 0.000000e+00  3.551522e-02 3.933154e-01 0.000000e+00  -5.847389e-02 1.655592e+00 0.000000e+00  3.654383e-02 1.419093e+00 0.000000e+00  8.959426e-02 1.267340e+00 0.000000e+00  -9.387838e-02 1.598387e+00 0.000000e+00  1.341027e-01 1.342727e+00 0.000000e+00  -5.630136e-02 1.506311e+00 0.000000e+00  6.031677e-03 2.883678e-01 0.000000e+00  9.427919e-04 1.413506e-01 0.000000e+00  9.906500e-02 1.361571e+00 0.000000e+00  -4.581060e-02 2.271436e+00 0.000000e+00  -1.438165e-01 2.492945e+00 0.000000e+00  -2.958533e-01 2.656417e+00 0.000000e+00  3.478195e-01 2.084214e+00 0.000000e+00  9.707705e-02 1.398594e+00 0.000000e+00  2.083824e-02 1.003388e+00 0.000000e+00  1.197553e-01 1.377677e+00 0.000000e+00  3.890599e-02 6.622199e-01 0.000000e+00  5.133440e-02 1.384878e+00 0.000000e+00  6.875180e-02 4.791159e-01 0.000000e+00  2.402492e-01 1.347686e+00 0.000000e+00  -2.685314e-03 3.057612e-01 0.000000e+00  1.268508e-01 1.332746e+00 0.000000e+00  -7.501163e-02 1.533081e+00 0.000000e+00  4.968305e-02 1.068777e+00 0.000000e+00  2.521774e-03 3.372771e-01 0.000000e+00  -2.698733e-02 1.458090e+00 0.000000e+00  1.676086e-02 7.515973e-01 0.000000e+00  6.130749e-03 7.078847e-01 0.000000e+00  1.243030e-01 1.344338e+00 0.000000e+00  -7.626946e-02 1.517118e+00 0.000000e+00  -1.941250e-02 1.473040e+00 0.000000e+00  1.511541e-01 1.361751e+00 0.000000e+00  -7.423086e-02 1.623736e+00 0.000000e+00  4.341411e-04 1.386343e-01 0.000000e+00  1.956695e-02 9.207955e-01 0.000000e+00  2.295288e-02 4.518451e-01 0.000000e+00  1.273967e-01 7.415803e-01 0.000000e+00  -1.060422e-01 1.701738e+00 0.000000e+00  7.027790e-02 1.412105e+00 0.000000e+00  7.598503e-02 1.259888e+00 0.000000e+00  -7.790053e-02 1.600170e+00 0.000000e+00  1.024498e-01 1.359282e+00 0.000000e+00  3.359140e-01 2.174702e+00 0.000000e+00  9.377284e-02 1.380974e+00 0.000000e+00  9.272966e-02 2.200823e+00 0.000000e+00  -3.974867e-03 2.062379e+00 0.000000e+00  -2.337933e-01 2.612818e+00 0.000000e+00  -9.023415e-02 2.389620e+00 0.000000e+00  -3.123294e-01 2.665887e+00 0.000000e+00  3.653684e-01 2.019069e+00 0.000000e+00  -1.390931e-01 2.432116e+00 0.000000e+00  3.834734e-01 2.148916e+00 0.000000e+00  -1.775414e-01 2.535273e+00 0.000000e+00  -3.135846e-01 2.659088e+00 0.000000e+00  -2.681094e-01 2.650367e+00 0.000000e+00  1.021767e-01 1.394808e+00 0.000000e+00  9.405413e-02 1.403611e+00 0.000000e+00  1.007798e-01 1.402837e+00 0.000000e+00  2.363636e-02 1.012803e+00 0.000000e+00  1.940021e-02 9.976738e-01 0.000000e+00  2.084047e-02 1.006721e+00 0.000000e+00  1.301375e-01 1.495443e+00 0.000000e+00  3.780978e-02 4.284330e-01 0.000000e+00  4.913896e-03 1.452081e+00 0.000000e+00  -5.382540e-03 2.063844e-01 0.000000e+00  -5.212859e-02 1.500872e+00 0.000000e+00  4.023751e-02 9.716078e-01 0.000000e+00  3.284856e-02 2.578062e-01 0.000000e+00  1.633550e-01 8.656443e-01 0.000000e+00  1.077431e-01 1.295321e+00 0.000000e+00  1.087619e-01 1.392985e+00 0.000000e+00  1.175346e-01 1.324011e+00 0.000000e+00  1.437766e-01 1.372571e+00 0.000000e+00  -8.181602e-04 2.227703e-01 0.000000e+00  2.054902e-03 1.491900e+00 0.000000e+00  1.418763e-01 1.349696e+00 0.000000e+00  4.349149e-02 1.057078e+00 0.000000e+00  1.045093e-02 3.324654e-01 0.000000e+00  3.999243e-02 9.715940e-01 0.000000e+00  -9.549026e-02 1.557573e+00 0.000000e+00  4.165483e-03 4.760034e-01 0.000000e+00  9.735639e-03 5.444800e-01 0.000000e+00  7.355817e-02 1.186586e+00 0.000000e+00  6.053407e-02 1.388214e+00 0.000000e+00  2.097526e-02 6.018823e-01 0.000000e+00  2.450177e-01 1.818487e+00 0.000000e+00  1.043764e-01 1.361905e+00 0.000000e+00  -8.174142e-02 1.570347e+00 0.000000e+00  -1.011281e-01 1.641851e+00 0.000000e+00  2.730032e-01 1.353756e+00 0.000000e+00  1.295333e-01 1.336909e+00 0.000000e+00  -6.669968e-02 1.490679e+00 0.000000e+00  7.070546e-02 6.159791e-01 0.000000e+00  1.419595e-02 8.289816e-01 0.000000e+00  -1.927998e-02 1.440481e+00 0.000000e+00  -4.744701e-02 1.482455e+00 0.000000e+00  9.976013e-03 6.866260e-01 0.000000e+00  4.454221e-03 8.053871e-01 0.000000e+00  4.921787e-03 6.668326e-01 0.000000e+00  -5.947934e-02 1.603772e+00 0.000000e+00  1.128466e-02 4.395309e-01 0.000000e+00  -8.441946e-02 1.609778e+00 0.000000e+00  1.083453e-01 1.337985e+00 0.000000e+00  -8.882322e-02 1.529866e+00 0.000000e+00  1.682258e-02 9.440449e-01 0.000000e+00  -1.370369e-01 1.699355e+00 0.000000e+00  5.316296e-02 1.196849e+00 0.000000e+00  3.348909e-01 1.824753e+00 0.000000e+00  1.024012e-01 1.373456e+00 0.000000e+00  2.614395e-02 2.143547e+00 0.000000e+00  -1.115219e-01 2.324256e+00 0.000000e+00  8.171275e-02 1.366914e+00 0.000000e+00  -1.667247e-02 2.364935e+00 0.000000e+00  -6.771179e-02 2.183947e+00 0.000000e+00  -2.051519e-01 2.577246e+00 0.000000e+00  7.819368e-02 2.309551e+00 0.000000e+00  -1.771905e-01 2.573059e+00 0.000000e+00  8.945519e-02 1.396955e+00 0.000000e+00  -2.737964e-01 2.638320e+00 0.000000e+00  -3.193719e-01 2.664584e+00 0.000000e+00  -2.364577e-01 2.629391e+00 0.000000e+00  -2.948835e-01 2.661409e+00 0.000000e+00  -1.578876e-01 2.493546e+00 0.000000e+00  -3.016421e-01 2.651658e+00 0.000000e+00  -3.178202e-01 2.669777e+00 0.000000e+00  2.851567e-02 1.022631e+00 0.000000e+00  2.184412e-02 1.010194e+00 0.000000e+00  1.820439e-02 9.915363e-01 0.000000e+00  2.017944e-02 1.003355e+00 0.000000e+00  -6.560292e-02 1.521772e+00 0.000000e+00  2.424435e-02 2.722198e-01 0.000000e+00  7.568130e-02 9.547420e-01 0.000000e+00  5.525203e-03 1.681143e+00 0.000000e+00  8.155844e-02 5.376145e-01 0.000000e+00  1.225487e-03 4.060906e-01 0.000000e+00  7.471647e-02 5.888685e-01 0.000000e+00  1.363926e-01 1.364658e+00 0.000000e+00  3.048567e-02 1.286361e+00 0.000000e+00  1.058127e-01 1.251960e+00 0.000000e+00  1.865503e-01 1.090275e+00 0.000000e+00  -5.697969e-03 1.313796e-01 0.000000e+00  1.494208e-01 1.722446e+00 0.000000e+00  2.735890e-02 8.494162e-01 0.000000e+00  -3.999390e-02 1.587327e+00 0.000000e+00  -7.270897e-02 1.520716e+00 0.000000e+00  6.280775e-02 1.188380e+00 0.000000e+00  -2.342111e-02 1.464482e+00 0.000000e+00  5.212721e-02 1.057198e+00 0.000000e+00  1.201564e-01 1.321003e+00 0.000000e+00  1.286407e-01 1.337691e+00 0.000000e+00  9.045658e-02 1.254207e+00 0.000000e+00  2.270442e-02 3.900108e-01 0.000000e+00  -4.380738e-02 1.489705e+00 0.000000e+00  5.755659e-04 2.038892e-01 0.000000e+00  -3.673676e-02 1.487883e+00 0.000000e+00  3.865327e-02 9.907940e-01 0.000000e+00  1.131809e-02 2.208685e-01 0.000000e+00  3.333728e-03 2.591055e-01 0.000000e+00  -1.123919e-01 1.596060e+00 0.000000e+00  5.269805e-03 4.120435e-01 0.000000e+00  1.296165e-01 1.382488e+00 0.000000e+00  1.883338e-01 9.441169e-01 0.000000e+00  1.099215e-01 1.306250e+00 0.000000e+00  1.045260e-01 1.315136e+00 0.000000e+00  7.708156e-02 1.373025e+00 0.000000e+00  4.507461e-03 1.441750e+00 0.000000e+00  -4.138004e-04 1.192772e-01 0.000000e+00  3.845921e-02 1.029539e+00 0.000000e+00  7.666440e-02 1.394718e+00 0.000000e+00  1.756374e-02 7.054995e-01 0.000000e+00  5.036184e-03 5.896855e-01 0.000000e+00  -3.221208e-03 3.114646e-01 0.000000e+00  2.745988e-02 1.410671e+00 0.000000e+00  -7.682717e-02 1.560915e+00 0.000000e+00  2.449993e-02 2.665081e-01 0.000000e+00  2.913481e-01 1.632526e+00 0.000000e+00  -9.664639e-03 1.049590e-01 0.000000e+00  4.766274e-02 1.113446e+00 0.000000e+00  1.520302e-02 7.867180e-01 0.000000e+00  -8.622646e-02 1.558621e+00 0.000000e+00  -9.422367e-02 1.542194e+00 0.000000e+00  1.163498e-02 4.853233e-01 0.000000e+00  1.116397e-01 1.353049e+00 0.000000e+00  1.325427e-01 7.812096e-01 0.000000e+00  1.270866e-01 1.340595e+00 0.000000e+00  5.847781e-02 5.197099e-01 0.000000e+00  1.016473e-02 6.220155e-01 0.000000e+00  -7.100392e-02 1.503058e+00 0.000000e+00  5.098229e-02 5.606428e-01 0.000000e+00  -8.026175e-02 1.643713e+00 0.000000e+00  -1.184003e-01 1.658563e+00 0.000000e+00  2.302570e-01 1.095799e+00 0.000000e+00  -5.306098e-02 1.466502e+00 0.000000e+00  2.265465e-02 9.017826e-01 0.000000e+00  -9.551773e-02 1.621677e+00 0.000000e+00  -7.308927e-02 1.609852e+00 0.000000e+00  -8.404782e-02 1.590560e+00 0.000000e+00  2.292418e-01 2.035372e+00 0.000000e+00  -8.152670e-02 1.508627e+00 0.000000e+00  -2.335652e-03 1.418293e+00 0.000000e+00  9.640154e-03 8.735192e-01 0.000000e+00  1.075121e-02 8.446638e-01 0.000000e+00  2.281731e-03 7.380105e-01 0.000000e+00  8.307751e-03 5.995104e-01 0.000000e+00  9.676757e-02 1.345244e+00 0.000000e+00  6.396526e-02 1.267248e+00 0.000000e+00  -1.356325e-01 1.744348e+00 0.000000e+00  7.389681e-03 9.046622e-01 0.000000e+00  -9.737792e-02 1.537783e+00 0.000000e+00  2.166876e-02 9.808117e-01 0.000000e+00  3.319256e-01 1.955856e+00 0.000000e+00  -1.488353e-01 1.674964e+00 0.000000e+00  3.185675e-01 1.684405e+00 0.000000e+00  1.032899e-01 1.367894e+00 0.000000e+00  2.036423e-02 2.255841e+00 0.000000e+00  -6.911862e-02 2.094554e+00 0.000000e+00  8.203764e-02 1.387328e+00 0.000000e+00  -1.210091e-01 2.411623e+00 0.000000e+00  1.005246e-01 1.385504e+00 0.000000e+00  -9.413861e-02 2.487648e+00 0.000000e+00  -1.119886e-01 2.248670e+00 0.000000e+00  -1.604172e-01 2.582046e+00 0.000000e+00  -3.088633e-01 2.667315e+00 0.000000e+00  -1.701511e-01 2.519343e+00 0.000000e+00  -3.206829e-01 2.668806e+00 0.000000e+00  8.907555e-02 1.403017e+00 0.000000e+00  2.698161e-02 1.026059e+00 0.000000e+00  1.715074e-02 9.837186e-01 0.000000e+00  2.220731e-02 1.540284e+00 0.000000e+00  6.291649e-02 6.650829e-01 0.000000e+00  1.966851e-01 1.411459e+00 0.000000e+00  1.408677e-01 1.351769e+00 0.000000e+00  2.977476e-03 2.892791e-01 0.000000e+00  1.597398e-01 1.244440e+00 0.000000e+00  -6.207279e-02 1.510757e+00 0.000000e+00  -1.935625e-02 1.523506e+00 0.000000e+00  1.253166e-01 7.603658e-01 0.000000e+00  2.870867e-02 2.461401e-01 0.000000e+00  6.270382e-02 1.179810e+00 0.000000e+00  4.368480e-03 4.636666e-01 0.000000e+00  3.506738e-02 9.087187e-01 0.000000e+00  -2.619480e-03 1.731099e-01 0.000000e+00  1.313681e-01 1.354542e+00 0.000000e+00  3.462995e-02 1.430610e+00 0.000000e+00  1.213698e-03 1.319224e-01 0.000000e+00  -1.544178e-03 7.407121e-02 0.000000e+00  -7.624921e-02 1.548044e+00 0.000000e+00  1.445381e-01 1.361735e+00 0.000000e+00  4.830544e-02 3.897331e-01 0.000000e+00  1.302771e-01 7.274365e-01 0.000000e+00  2.106283e-02 1.429380e-01 0.000000e+00  1.057387e-01 6.250082e-01 0.000000e+00  2.115002e-01 1.084138e+00 0.000000e+00  5.145001e-02 1.121120e+00 0.000000e+00  -2.631473e-02 1.472471e+00 0.000000e+00  4.523816e-02 1.771869e+00 0.000000e+00  1.432472e-04 3.183579e-01 0.000000e+00  2.420572e-03 3.994555e-01 0.000000e+00  1.214882e-01 1.364539e+00 0.000000e+00  3.080445e-02 1.399012e+00 0.000000e+00  9.595415e-02 1.375583e+00 0.000000e+00  -6.376117e-02 1.503950e+00 0.000000e+00  2.320383e-02 8.503561e-01 0.000000e+00  1.022777e-01 1.301653e+00 0.000000e+00  3.521522e-02 9.996947e-01 0.000000e+00  1.735974e-01 1.894968e+00 0.000000e+00  1.009787e-01 1.356731e+00 0.000000e+00  1.933244e-02 3.678425e-01 0.000000e+00  4.315348e-03 5.494017e-01 0.000000e+00  2.395811e-04 3.916021e-01 0.000000e+00  -9.109859e-02 1.663175e+00 0.000000e+00  1.429420e-02 2.839281e-01 0.000000e+00  4.004364e-03 1.432713e+00 0.000000e+00  7.503225e-02 1.216777e+00 0.000000e+00  -8.348514e-02 1.540810e+00 0.000000e+00  -4.495037e-02 1.692106e+00 0.000000e+00  -9.729211e-02 1.579773e+00 0.000000e+00  3.030788e-01 1.553619e+00 0.000000e+00  -8.483904e-02 1.535546e+00 0.000000e+00  1.700802e-01 8.830917e-01 0.000000e+00  2.611906e-01 1.578190e+00 0.000000e+00  -5.720617e-02 1.626995e+00 0.000000e+00  9.228852e-03 7.384467e-01 0.000000e+00  6.074428e-03 6.433387e-01 0.000000e+00  2.927954e-01 1.894270e+00 0.000000e+00  4.477448e-02 1.073769e+00 0.000000e+00  7.491521e-02 1.238220e+00 0.000000e+00  -5.534015e-03 2.444997e-01 0.000000e+00  -5.468408e-02 1.483559e+00 0.000000e+00  9.244448e-02 6.674928e-01 0.000000e+00  2.917102e-02 5.035508e-01 0.000000e+00  9.098024e-02 1.314551e+00 0.000000e+00  -4.523006e-02 1.467327e+00 0.000000e+00  4.330138e-02 5.304966e-01 0.000000e+00  9.181973e-02 6.576125e-01 0.000000e+00  -8.765760e-02 1.522768e+00 0.000000e+00  -1.102346e-01 1.566863e+00 0.000000e+00  2.877129e-02 9.861931e-01 0.000000e+00  -1.141500e-01 1.631412e+00 0.000000e+00  -7.576432e-02 1.494736e+00 0.000000e+00  1.149869e-01 1.324429e+00 0.000000e+00  8.084800e-03 5.321020e-01 0.000000e+00  7.532105e-03 7.755270e-01 0.000000e+00  -1.054769e-01 1.602507e+00 0.000000e+00  1.081183e-01 1.349894e+00 0.000000e+00  4.444743e-03 7.251449e-01 0.000000e+00  -8.848682e-02 1.634452e+00 0.000000e+00  6.119814e-02 1.371473e+00 0.000000e+00  -3.166401e-02 1.441675e+00 0.000000e+00  4.663364e-04 8.130084e-01 0.000000e+00  5.820523e-03 6.106823e-01 0.000000e+00  -1.387549e-01 1.657953e+00 0.000000e+00  4.095853e-02 1.057553e+00 0.000000e+00  1.134933e-01 1.332879e+00 0.000000e+00  4.838072e-02 1.157237e+00 0.000000e+00  8.020863e-02 6.215773e-01 0.000000e+00  1.988525e-01 9.691899e-01 0.000000e+00  2.513565e-01 2.186882e+00 0.000000e+00  -1.140980e-01 1.734971e+00 0.000000e+00  4.486794e-03 6