<?xml version="1.0"?>
<VTKFile type="UnstructuredGrid"  version="0.1"  >
<UnstructuredGrid>
<Piece  NumberOfPoints="2868" NumberOfCells="5400">
<Points>
<DataArray  type="Float32"  NumberOfComponents="3"  format="ascii">0.534923 0.326073 0  0.510642 0.314196 0  0.466125 0.293082 0  0.436448 0.281205 0  0.409468 0.275927 0  0.368998 0.270648 0  0.35281 0.275927 0  0.381139 0.302319 0  0.405421 0.326073 0  0.410817 0.33531 0  0.408119 0.349826 0  0.400025 0.357744 0  0.375743 0.368301 0  0.329878 0.392055 0  0.297502 0.432963 0  0.282663 0.476511 0  0.285361 0.524018 0  0.298851 0.572845 0  0.317737 0.604516 0  0.337972 0.636187 0  0.360904 0.674457 0  0.368998 0.69953 0  0.359555 0.721964 0  0.360904 0.757594 0  0.370347 0.766831 0  0.381139 0.762872 0  0.390582 0.741758 0  0.404072 0.720644 0  0.424307 0.707448 0  0.447239 0.702169 0  0.480964 0.704808 0  0.479615 0.688973 0  0.468823 0.675776 0  0.447239 0.669178 0  0.428354 0.669178 0  0.410817 0.6639 0  0.404072 0.653343 0  0.395978 0.628269 0  0.387884 0.59132 0  0.389233 0.576804 0  0.397327 0.557009 0  0.410817 0.547772 0  0.424307 0.546452 0  0.437797 0.55305 0  0.44589 0.566247 0  0.441843 0.582082 0  0.439145 0.597918 0  0.449937 0.609795 0  0.468823 0.603196 0  0.479615 0.59 0  0.489058 0.570205 0  0.494454 0.546452 0  0.505246 0.522699 0  0.522783 0.509502 0  0.55246 0.494986 0  0.586185 0.484429 0  0.615863 0.48047 0  0.64554 0.473872 0  0.667124 0.461995 0  0.683312 0.451438 0  0.696802 0.435603 0  0.703547 0.417128 0  0.71164 0.393374 0  0.718385 0.37226 0  0.72513 0.364342 0  0.739969 0.353785 0  0.745365 0.344548 0  0.745365 0.327393 0  0.737271 0.318155 0  0.718385 0.316835 0  0.700849 0.319475 0  0.677916 0.318155 0  0.650936 0.316835 0  0.610467 0.318155 0  0.57944 0.324753 0  0.559205 0.328712 0  0.53897 0.326073 0  1 1 0  1 0 0  0 0 0  0 1 0  0.532238 0.32476 0  0.528748 0.323052 0  0.52421 0.320833 0  0.518311 0.317947 0  0.503447 0.310783 0  0.494093 0.306347 0  0.481933 0.30058 0  0.452151 0.28749 0  0.392327 0.273691 0  0.379141 0.271971 0  0.360474 0.283066 0  0.369797 0.291752 0  0.391424 0.31238 0  0.399335 0.32012 0  0.40958 0.341964 0  0.393939 0.36039 0  0.386028 0.36383 0  0.364248 0.374254 0  0.349304 0.381994 0  0.315801 0.409841 0  0.292986 0.551616 0  0.350934 0.657818 0  0.360127 0.737055 0  0.360566 0.748664 0  0.385245 0.753692 0  0.396447 0.732578 0  0.466301 0.703661 0  0.459439 0.672908 0  0.418442 0.666195 0  0.400553 0.642441 0  0.39255 0.612619 0  0.389913 0.60058 0  0.392752 0.568197 0  0.444131 0.573132 0  0.458149 0.606926 0  0.500554 0.533026 0  0.571522 0.489019 0  0.632637 0.476741 0  0.689177 0.444553 0  0.708121 0.403702 0  0.715453 0.38144 0  0.732406 0.359166 0  0.745365 0.337089 0  0.72906 0.317581 0  0.629879 0.317522 0  0.59293 0.321884 0  0.568003 0.326991 0  0.55202 0.327775 0  0.546493 0.327054 0  0.542241 0.326499 0  1 0.9 0  1 0.8 0  1 0.7 0  1 0.6 0  1 0.5 0  1 0.4 0  1 0.3 0  1 0.2 0  1 0.1 0  0.9 0 0  0.8 0 0  0.7 0 0  0.6 0 0  0.5 0 0  0.4 0 0  0.3 0 0  0.2 0 0  0.1 0 0  0.1 1 0  0.2 1 0  0.3 1 0  0.4 1 0  0.5 1 0  0.6 1 0  0.7 1 0  0.8 1 0  0.9 1 0  0 0.1 0  0 0.2 0  0 0.3 0  0 0.4 0  0 0.5 0  0 0.6 0  0 0.7 0  0 0.8 0  0 0.9 0  0.535686 0.503191 0  0.753987 0.733359 0  0.167145 0.741436 0  0.173378 0.257204 0  0.733497 0.159862 0  0.554096 0.15788 0  0.849187 0.479053 0  0.488793 0.838452 0  0.138507 0.5592 0  0.30686 0.154944 0  0.348904 0.890523 0  0.058006 0.065099 0  0.069849 0.937917 0  0.93633 0.939704 0  0.934625 0.053613 0  0.343397 0.333452 0  0.473272 0.639943 0  0.433266 0.638072 0  0.415174 0.58269 0  0.533435 0.545042 0  0.390848 0.340652 0  0.53655 0.320242 0  0.127966 0.393775 0  0.83861 0.850455 0  0.635242 0.85513 0  0.852158 0.633441 0  0.653427 0.626848 0  0.861226 0.24292 0  0.166128 0.12976 0  0.216875 0.869871 0  0.458305 0.11179 0  0.84446 0.101633 0  0.202024 0.642528 0  0.644825 0.115855 0  0.671342 0.218358 0  0.251354 0.286186 0  0.262388 0.75153 0  0.063044 0.751571 0  0.068189 0.242962 0  0.435781 0.905395 0  0.934144 0.451133 0  0.568393 0.237622 0  0.814984 0.395506 0  0.752951 0.517227 0  0.456254 0.780699 0  0.073352 0.531116 0  0.337731 0.206071 0  0.363213 0.960371 0  0.330742 0.363592 0  0.516613 0.55705 0  0.369057 0.332992 0  0.500926 0.617309 0  0.498004 0.665534 0  0.412142 0.61178 0  0.454233 0.636604 0  0.422782 0.567496 0  0.541193 0.52148 0  0.439761 0.65557 0  0.5163 0.533672 0  0.414775 0.64562 0  0.40073 0.576135 0  0.430362 0.588034 0  0.385432 0.351492 0  0.400298 0.335397 0  0.398325 0.348194 0  0.528702 0.314885 0  0.540814 0.322334 0  0.534477 0.322953 0  0.619095 0.743583 0  0.885162 0.737972 0  0.08076 0.668849 0  0.90734 0.36634 0  0.094687 0.868937 0  0.759838 0.912152 0  0.901518 0.540898 0  0.747285 0.607479 0  0.229182 0.071641 0  0.069154 0.450091 0  0.244775 0.203309 0  0.076534 0.331755 0  0.897847 0.167826 0  0.578909 0.911415 0  0.077133 0.146341 0  0.477215 0.203448 0  0.922631 0.869341 0  0.517415 0.074785 0  0.297026 0.827793 0  0.783271 0.246505 0  0.74519 0.061079 0  0.36033 0.069068 0  0.210313 0.475228 0  0.859426 0.928758 0  0.574548 0.609182 0  0.243069 0.383398 0  0.283099 0.934598 0  0.417416 0.843141 0  0.643942 0.553164 0  0.112687 0.079336 0  0.281357 0.658386 0  0.765043 0.436177 0  0.611361 0.198486 0  0.234496 0.58911 0  0.206479 0.702638 0  0.679608 0.155818 0  0.62682 0.259978 0  0.690538 0.264164 0  0.448938 0.956308 0  0.808154 0.328403 0  0.379583 0.91913 0  0.308083 0.297769 0  0.312358 0.730249 0  0.563101 0.278576 0  0.435597 0.746198 0  0.385475 0.225229 0  0.572248 0.518034 0  0.357864 0.35422 0  0.497647 0.641694 0  0.458101 0.655768 0  0.360474 0.310727 0  0.467038 0.620139 0  0.47798 0.659909 0  0.41102 0.628072 0  0.48324 0.609015 0  0.427544 0.617941 0  0.388633 0.328253 0  0.405336 0.599404 0  0.408351 0.565178 0  0.42395 0.600985 0  0.431562 0.576523 0  0.424905 0.655198 0  0.398064 0.58782 0  0.427739 0.557934 0  0.519291 0.303443 0  0.53142 0.320293 0  0.5449 0.323642 0  0.537166 0.323513 0  0.153974 0.920841 0  0.918186 0.67343 0  0.759946 0.820588 0  0.537526 0.783091 0  0.816532 0.545843 0  0.813991 0.178083 0  0.836774 0.702023 0  0.149815 0.318856 0  0.662287 0.923338 0  0.680146 0.791192 0  0.708961 0.663172 0  0.937278 0.287318 0  0.574622 0.688166 0  0.589474 0.076262 0  0.502822 0.926683 0  0.222269 0.811068 0  0.380457 0.164786 0  0.15321 0.684154 0  0.458063 0.051413 0  0.161702 0.056026 0  0.199351 0.198818 0  0.298946 0.095532 0  0.902465 0.795949 0  0.121139 0.791477 0  0.906269 0.112287 0  0.056109 0.822332 0  0.512172 0.13237 0  0.940964 0.741805 0  0.888887 0.408777 0  0.354543 0.825964 0  0.808736 0.068638 0  0.068507 0.394071 0  0.719105 0.563843 0  0.247287 0.149664 0  0.293062 0.237128 0  0.240524 0.434997 0  0.141255 0.623289 0  0.945202 0.160621 0  0.502914 0.247629 0  0.144669 0.480811 0  0.665025 0.060817 0  0.728047 0.224344 0  0.861995 0.313312 0  0.200068 0.534235 0  0.253262 0.965623 0  0.893804 0.49307 0  0.604391 0.572456 0  0.947088 0.345347 0  0.439372 0.227307 0  0.629847 0.159823 0  0.273405 0.880181 0  0.302744 0.776823 0  0.781502 0.295365 0  0.275342 0.349602 0  0.728385 0.472798 0  0.229136 0.246478 0  0.807794 0.480346 0  0.709476 0.112786 0  0.275506 0.694991 0  0.771674 0.394419 0  0.449715 0.861802 0  0.419159 0.799696 0  0.674851 0.503139 0  0.280443 0.61016 0  0.572443 0.192538 0  0.393113 0.87525 0  0.405555 0.948428 0  0.330942 0.934103 0  0.540509 0.597101 0  0.312763 0.668931 0  0.254368 0.540179 0  0.595265 0.25915 0  0.606679 0.234099 0  0.657131 0.279138 0  0.722458 0.279478 0  0.333 0.308056 0  0.351529 0.246142 0  0.455714 0.725794 0  0.585239 0.295143 0  0.340062 0.72492 0  0.545593 0.293773 0  0.555449 0.545426 0  0.414311 0.737314 0  0.590854 0.502323 0  0.350507 0.368444 0  0.484423 0.625665 0  0.483899 0.674542 0  0.378137 0.317274 0  0.446416 0.646404 0  0.373532 0.347654 0  0.446876 0.619769 0  0.466106 0.666068 0  0.437545 0.609254 0  0.434988 0.565726 0  0.41462 0.656829 0  0.418803 0.556961 0  0.398425 0.327446 0  0.517803 0.310421 0  0.549516 0.322918 0  0.57701 0.842889 0  0.829127 0.773906 0  0.643235 0.684732 0  0.134281 0.207734 0  0.865997 0.055966 0  0.680959 0.723345 0  0.165229 0.841555 0  0.54558 0.959672 0  0.783726 0.656439 0  0.913315 0.595533 0  0.699439 0.860667 0  0.785839 0.125076 0  0.551673 0.037713 0  0.920097 0.223214 0  0.206406 0.299726 0  0.087064 0.596401 0  0.935644 0.394252 0  0.964557 0.252582 0  0.230124 0.928346 0  0.120579 0.271764 0  0.857215 0.524082 0  0.767098 0.555147 0  0.936094 0.507131 0  0.804064 0.59585 0  0.700565 0.608273 0  0.429773 0.174231 0  0.117746 0.727333 0  0.538962 0.730231 0  0.862761 0.359173 0  0.821444 0.284046 0  0.193552 0.35818 0  0.234923 0.505555 0  0.193209 0.421217 0  0.220144 0.755896 0  0.594015 0.131642 0  0.283813 0.195855 0  0.517519 0.213961 0  0.553509 0.639116 0  0.280391 0.378018 0  0.852183 0.436817 0  0.746983 0.197173 0  0.821806 0.221318 0  0.449853 0.828453 0  0.883758 0.453926 0  0.183484 0.589542 0  0.348384 0.129314 0  0.255254 0.838525 0  0.504849 0.798516 0  0.320344 0.863432 0  0.611669 0.525425 0  0.265864 0.804962 0  0.72056 0.521442 0  0.613372 0.610122 0  0.481262 0.881068 0  0.655778 0.191988 0  0.701921 0.196918 0  0.565826 0.573181 0  0.46914 0.240927 0  0.343219 0.173284 0  0.888786 0.278502 0  0.244113 0.675093 0  0.739546 0.417914 0  0.784023 0.355942 0  0.326805 0.265549 0  0.248616 0.634948 0  0.789183 0.413964 0  0.764107 0.476606 0  0.32086 0.698956 0  0.334735 0.791464 0  0.53448 0.258468 0  0.395208 0.824575 0  0.309962 0.638947 0  0.263264 0.22712 0  0.756395 0.267254 0  0.639281 0.224663 0  0.358631 0.85116 0  0.309751 0.332089 0  0.663461 0.246436 0  0.424083 0.871774 0  0.269645 0.445719 0  0.272183 0.572741 0  0.624492 0.294638 0  0.717827 0.250266 0  0.408215 0.763744 0  0.485997 0.274924 0  0.288138 0.274311 0  0.410524 0.242487 0  0.741513 0.385737 0  0.691284 0.483519 0  0.515531 0.581849 0  0.463005 0.753402 0  0.681919 0.
[...]
<PointData  Vectors="u"> 
<DataArray  type="Float32"  Name="u"  NumberOfComponents="3" format="ascii">1.270214e-02 6.228776e-01 0.000000e+00  1.654117e-02 6.408595e-01 0.000000e+00  2.458388e-02 6.706960e-01 0.000000e+00  2.715800e-02 6.936329e-01 0.000000e+00  2.830974e-02 7.184485e-01 0.000000e+00  2.836309e-02 7.682086e-01 0.000000e+00  3.518953e-02 8.108971e-01 0.000000e+00  4.153310e-02 8.606281e-01 0.000000e+00  5.337817e-02 8.709714e-01 0.000000e+00  5.674855e-02 8.709952e-01 0.000000e+00  6.107197e-02 8.709533e-01 0.000000e+00  6.268166e-02 8.698236e-01 0.000000e+00  6.392849e-02 8.592129e-01 0.000000e+00  5.710508e-02 8.405130e-01 0.000000e+00  3.834699e-02 8.436778e-01 0.000000e+00  1.637815e-02 8.579851e-01 0.000000e+00  -8.068894e-03 8.782684e-01 0.000000e+00  -3.150921e-02 9.023020e-01 0.000000e+00  -4.563054e-02 9.207366e-01 0.000000e+00  -5.544174e-02 9.363229e-01 0.000000e+00  -6.206823e-02 9.491197e-01 0.000000e+00  -6.420304e-02 9.528157e-01 0.000000e+00  -6.610637e-02 9.565511e-01 0.000000e+00  -7.641845e-02 9.726397e-01 0.000000e+00  -8.570889e-02 9.891784e-01 0.000000e+00  -9.373651e-02 1.006741e+00 0.000000e+00  -1.003726e-01 1.026070e+00 0.000000e+00  -9.838557e-02 1.040509e+00 0.000000e+00  -9.368829e-02 1.057230e+00 0.000000e+00  -8.918763e-02 1.080134e+00 0.000000e+00  -8.081888e-02 1.171440e+00 0.000000e+00  -8.158600e-02 1.274676e+00 0.000000e+00  -8.073197e-02 1.376004e+00 0.000000e+00  -8.780397e-02 1.483283e+00 0.000000e+00  -9.699810e-02 1.540422e+00 0.000000e+00  -1.086914e-01 1.573064e+00 0.000000e+00  -1.195176e-01 1.587003e+00 0.000000e+00  -1.498953e-01 1.620618e+00 0.000000e+00  -1.943253e-01 1.655831e+00 0.000000e+00  -2.025548e-01 1.660415e+00 0.000000e+00  -2.068871e-01 1.664715e+00 0.000000e+00  -2.062731e-01 1.667814e+00 0.000000e+00  -2.052595e-01 1.669924e+00 0.000000e+00  -2.024639e-01 1.669790e+00 0.000000e+00  -1.941536e-01 1.666811e+00 0.000000e+00  -1.744123e-01 1.661953e+00 0.000000e+00  -1.324375e-01 1.640983e+00 0.000000e+00  -5.295944e-02 1.579209e+00 0.000000e+00  4.695752e-02 1.508571e+00 0.000000e+00  1.267198e-01 1.467167e+00 0.000000e+00  2.011038e-01 1.425373e+00 0.000000e+00  2.458961e-01 1.387725e+00 0.000000e+00  2.533000e-01 1.352062e+00 0.000000e+00  2.440137e-01 1.306719e+00 0.000000e+00  2.226153e-01 1.200349e+00 0.000000e+00  1.997881e-01 1.061091e+00 0.000000e+00  1.871646e-01 9.279445e-01 0.000000e+00  1.714208e-01 7.812064e-01 0.000000e+00  1.521200e-01 6.717721e-01 0.000000e+00  1.362943e-01 5.920057e-01 0.000000e+00  1.174917e-01 5.170761e-01 0.000000e+00  1.009820e-01 4.682833e-01 0.000000e+00  8.064606e-02 4.260714e-01 0.000000e+00  6.458678e-02 4.010773e-01 0.000000e+00  5.776815e-02 3.905443e-01 0.000000e+00  4.505952e-02 3.634637e-01 0.000000e+00  3.554942e-02 3.469537e-01 0.000000e+00  2.070754e-02 3.375835e-01 0.000000e+00  1.190701e-02 3.471132e-01 0.000000e+00  6.828606e-03 3.734350e-01 0.000000e+00  5.627194e-03 3.962359e-01 0.000000e+00  3.201551e-03 4.256801e-01 0.000000e+00  6.563140e-04 4.639003e-01 0.000000e+00  8.292655e-05 5.259268e-01 0.000000e+00  4.992737e-03 5.737842e-01 0.000000e+00  9.328396e-03 5.994981e-01 0.000000e+00  1.213481e-02 6.197063e-01 0.000000e+00  0.000000e+00 0.000000e+00 0.000000e+00  0.000000e+00 0.000000e+00 0.000000e+00  8.196623e-02 8.327738e-01 0.000000e+00  -3.492230e-02 9.350158e-01 0.000000e+00  1.284770e-02 6.247231e-01 0.000000e+00  1.324355e-02 6.273788e-01 0.000000e+00  1.393078e-02 6.308572e-01 0.000000e+00  1.499380e-02 6.352908e-01 0.000000e+00  1.804497e-02 6.458672e-01 0.000000e+00  1.994865e-02 6.521148e-01 0.000000e+00  2.219289e-02 6.600351e-01 0.000000e+00  2.606299e-02 6.807984e-01 0.000000e+00  2.857415e-02 7.363140e-01 0.000000e+00  2.848649e-02 7.522249e-01 0.000000e+00  3.405388e-02 8.370526e-01 0.000000e+00  3.697215e-02 8.501917e-01 0.000000e+00  4.650586e-02 8.669976e-01 0.000000e+00  5.056139e-02 8.699954e-01 0.000000e+00  5.882098e-02 8.709960e-01 0.000000e+00  6.315940e-02 8.680112e-01 0.000000e+00  6.367070e-02 8.645630e-01 0.000000e+00  6.351929e-02 8.531054e-01 0.000000e+00  6.178672e-02 8.462250e-01 0.000000e+00  4.968284e-02 8.397426e-01 0.000000e+00  -2.184404e-02 8.916057e-01 0.000000e+00  -5.971062e-02 9.444815e-01 0.000000e+00  -6.956641e-02 9.616382e-01 0.000000e+00  -7.291773e-02 9.664280e-01 0.000000e+00  -9.873587e-02 1.017252e+00 0.000000e+00  -1.001030e-01 1.032745e+00 0.000000e+00  -8.659545e-02 1.109660e+00 0.000000e+00  -8.169365e-02 1.429877e+00 0.000000e+00  -1.037727e-01 1.561338e+00 0.000000e+00  -1.314727e-01 1.600814e+00 0.000000e+00  -1.709017e-01 1.639266e+00 0.000000e+00  -1.857670e-01 1.650406e+00 0.000000e+00  -2.053420e-01 1.662483e+00 0.000000e+00  -1.879633e-01 1.665800e+00 0.000000e+00  -5.997643e-03 1.549529e+00 0.000000e+00  2.537305e-01 1.366920e+00 0.000000e+00  2.095686e-01 1.123022e+00 0.000000e+00  1.784729e-01 8.466095e-01 0.000000e+00  1.286138e-01 5.581895e-01 0.000000e+00  8.931493e-02 4.426949e-01 0.000000e+00  7.118812e-02 4.101972e-01 0.000000e+00  5.198511e-02 3.788956e-01 0.000000e+00  2.925281e-02 3.403680e-01 0.000000e+00  9.079888e-03 3.586396e-01 0.000000e+00  -7.846976e-05 4.954335e-01 0.000000e+00  2.417178e-03 5.538947e-01 0.000000e+00  7.476984e-03 5.892851e-01 0.000000e+00  1.015051e-02 6.067876e-01 0.000000e+00  1.094057e-02 6.124699e-01 0.000000e+00  1.159754e-02 6.166365e-01 0.000000e+00  0.000000e+00 0.000000e+00 0.000000e+00  0.000000e+00 0.000000e+00 0.000000e+00  0.000000e+00 0.000000e+00 0.000000e+00  0.000000e+00 0.000000e+00 0.000000e+00  0.000000e+00 0.000000e+00 0.000000e+00  0.000000e+00 0.000000e+00 0.000000e+00  0.000000e+00 0.000000e+00 0.000000e+00  0.000000e+00 0.000000e+00 0.000000e+00  0.000000e+00 0.000000e+00 0.000000e+00  1.475099e-03 1.330217e-01 0.000000e+00  4.406094e-03 2.645528e-01 0.000000e+00  9.423526e-03 3.908125e-01 0.000000e+00  1.714460e-02 5.076479e-01 0.000000e+00  2.748194e-02 6.106784e-01 0.000000e+00  4.003496e-02 6.967747e-01 0.000000e+00  5.456561e-02 7.619859e-01 0.000000e+00  6.825197e-02 8.034714e-01 0.000000e+00  7.783754e-02 8.250799e-01 0.000000e+00  -3.873325e-02 9.431006e-01 0.000000e+00  -4.508769e-02 9.605546e-01 0.000000e+00  -4.919236e-02 9.822242e-01 0.000000e+00  -4.366759e-02 9.948070e-01 0.000000e+00  -2.436645e-02 9.699998e-01 0.000000e+00  -4.980852e-05 8.807516e-01 0.000000e+00  1.484129e-02 7.250971e-01 0.000000e+00  1.542395e-02 5.204940e-01 0.000000e+00  7.354047e-03 2.808893e-01 0.000000e+00  8.828415e-02 8.363181e-01 0.000000e+00  9.651277e-02 8.427230e-01 0.000000e+00  9.753174e-02 8.505108e-01 0.000000e+00  8.615416e-02 8.602469e-01 0.000000e+00  6.333368e-02 8.732088e-01 0.000000e+00  3.519449e-02 8.891979e-01 0.000000e+00  8.517873e-03 9.058761e-01 0.000000e+00  -1.288775e-02 9.203334e-01 0.000000e+00  -2.779572e-02 9.305319e-01 0.000000e+00  2.356351e-01 1.264463e+00 0.000000e+00  7.603459e-02 5.861934e-01 0.000000e+00  -2.836629e-02 9.229602e-01 0.000000e+00  8.449377e-02 8.397171e-01 0.000000e+00  3.871594e-03 3.570964e-01 0.000000e+00  1.790632e-02 5.741017e-01 0.000000e+00  2.225209e-02 2.448431e-01 0.000000e+00  -3.713866e-02 1.030950e+00 0.000000e+00  2.196873e-02 8.813707e-01 0.000000e+00  5.484051e-02 7.858414e-01 0.000000e+00  -5.928883e-02 9.942963e-01 0.000000e+00  8.250860e-02 8.330902e-01 0.000000e+00  -3.562962e-02 9.360823e-01 0.000000e+00  3.735233e-03 1.795751e-01 0.000000e+00  5.944013e-04 8.776070e-02 0.000000e+00  5.984445e-02 8.440279e-01 0.000000e+00  -3.043981e-02 1.417278e+00 0.000000e+00  -9.226129e-02 1.556847e+00 0.000000e+00  -1.887449e-01 1.660182e+00 0.000000e+00  2.166422e-01 1.300240e+00 0.000000e+00  5.849406e-02 8.666546e-01 0.000000e+00  1.298052e-02 6.209196e-01 0.000000e+00  7.344844e-02 8.552014e-01 0.000000e+00  2.417176e-02 4.124878e-01 0.000000e+00  3.166742e-02 8.626250e-01 0.000000e+00  4.286824e-02 2.984753e-01 0.000000e+00  1.495930e-01 8.399930e-01 0.000000e+00  -1.597322e-03 1.899290e-01 0.000000e+00  7.794652e-02 8.267792e-01 0.000000e+00  -4.739788e-02 9.529597e-01 0.000000e+00  3.040629e-02 6.624021e-01 0.000000e+00  1.614586e-03 2.093369e-01 0.000000e+00  -1.756192e-02 9.058529e-01 0.000000e+00  1.044074e-02 4.658767e-01 0.000000e+00  4.088814e-03 4.387480e-01 0.000000e+00  7.597688e-02 8.338246e-01 0.000000e+00  -4.828700e-02 9.429476e-01 0.000000e+00  -1.258179e-02 9.152009e-01 0.000000e+00  9.304147e-02 8.450388e-01 0.000000e+00  -4.697596e-02 1.010648e+00 0.000000e+00  2.887978e-04 8.625239e-02 0.000000e+00  1.219114e-02 5.702070e-01 0.000000e+00  1.451326e-02 2.810751e-01 0.000000e+00  7.966327e-02 4.620134e-01 0.000000e+00  -6.699435e-02 1.059668e+00 0.000000e+00  4.303660e-02 8.769455e-01 0.000000e+00  4.633047e-02 7.810554e-01 0.000000e+00  -4.925102e-02 9.954980e-01 0.000000e+00  6.187836e-02 8.428189e-01 0.000000e+00  2.090326e-01 1.356789e+00 0.000000e+00  5.650757e-02 8.558599e-01 0.000000e+00  5.644763e-02 1.372906e+00 0.000000e+00  -3.836705e-03 1.285890e+00 0.000000e+00  -1.493428e-01 1.632582e+00 0.000000e+00  -5.845683e-02 1.491704e+00 0.000000e+00  -1.992153e-01 1.666187e+00 0.000000e+00  2.278253e-01 1.259625e+00 0.000000e+00  -8.911245e-02 1.518427e+00 0.000000e+00  2.389583e-01 1.340738e+00 0.000000e+00  -1.135307e-01 1.583537e+00 0.000000e+00  -2.000095e-01 1.661900e+00 0.000000e+00  -1.711474e-01 1.656322e+00 0.000000e+00  6.161776e-02 8.643461e-01 0.000000e+00  5.663914e-02 8.697242e-01 0.000000e+00  6.075719e-02 8.692543e-01 0.000000e+00  1.467010e-02 6.267646e-01 0.000000e+00  1.210860e-02 6.173805e-01 0.000000e+00  1.297989e-02 6.229714e-01 0.000000e+00  8.076546e-02 9.317483e-01 0.000000e+00  2.354570e-02 2.668984e-01 0.000000e+00  2.516662e-03 9.020549e-01 0.000000e+00  -3.318151e-03 1.283187e-01 0.000000e+00  -3.301975e-02 9.326690e-01 0.000000e+00  2.490535e-02 6.051527e-01 0.000000e+00  2.050142e-02 1.605337e-01 0.000000e+00  1.018675e-01 5.394126e-01 0.000000e+00  6.615127e-02 8.034422e-01 0.000000e+00  6.684313e-02 8.648824e-01 0.000000e+00  7.203442e-02 8.211664e-01 0.000000e+00  8.845473e-02 8.519186e-01 0.000000e+00  -4.768563e-04 1.383428e-01 0.000000e+00  8.395295e-04 9.290974e-01 0.000000e+00  8.730408e-02 8.374391e-01 0.000000e+00  2.658017e-02 6.548211e-01 0.000000e+00  6.490362e-03 2.070749e-01 0.000000e+00  2.454708e-02 6.021870e-01 0.000000e+00  -6.030549e-02 9.684638e-01 0.000000e+00  2.818071e-03 2.955072e-01 0.000000e+00  6.088228e-03 3.377191e-01 0.000000e+00  4.506389e-02 7.357243e-01 0.000000e+00  3.651297e-02 8.619376e-01 0.000000e+00  1.299337e-02 3.748462e-01 0.000000e+00  1.522257e-01 1.133815e+00 0.000000e+00  6.347027e-02 8.451216e-01 0.000000e+00  -5.163690e-02 9.764965e-01 0.000000e+00  -6.387736e-02 1.021903e+00 0.000000e+00  1.703267e-01 8.440099e-01 0.000000e+00  7.965626e-02 8.294344e-01 0.000000e+00  -4.244061e-02 9.262962e-01 0.000000e+00  4.443023e-02 3.834988e-01 0.000000e+00  8.934190e-03 5.135810e-01 0.000000e+00  -1.292448e-02 8.948137e-01 0.000000e+00  -3.025173e-02 9.211394e-01 0.000000e+00  6.343369e-03 4.256568e-01 0.000000e+00  3.062098e-03 4.988720e-01 0.000000e+00  3.457508e-03 4.133737e-01 0.000000e+00  -3.771409e-02 9.982148e-01 0.000000e+00  7.218219e-03 2.731763e-01 0.000000e+00  -5.335294e-02 1.001591e+00 0.000000e+00  6.590368e-02 8.295642e-01 0.000000e+00  -5.625856e-02 9.509912e-01 0.000000e+00  1.054040e-02 5.844153e-01 0.000000e+00  -8.644610e-02 1.058064e+00 0.000000e+00  3.223363e-02 7.417364e-01 0.000000e+00  2.089517e-01 1.138229e+00 0.000000e+00  6.179064e-02 8.513306e-01 0.000000e+00  1.482430e-02 1.336892e+00 0.000000e+00  -7.165161e-02 1.450489e+00 0.000000e+00  4.918175e-02 8.471643e-01 0.000000e+00  -1.231014e-02 1.476124e+00 0.000000e+00  -4.397922e-02 1.362233e+00 0.000000e+00  -1.311175e-01 1.610083e+00 0.000000e+00  4.724225e-02 1.441224e+00 0.000000e+00  -1.135221e-01 1.607442e+00 0.000000e+00  5.383242e-02 8.656403e-01 0.000000e+00  -1.747227e-01 1.648728e+00 0.000000e+00  -2.036999e-01 1.665383e+00 0.000000e+00  -1.510835e-01 1.643050e+00 0.000000e+00  -1.881287e-01 1.663325e+00 0.000000e+00  -1.010331e-01 1.557170e+00 0.000000e+00  -1.924065e-01 1.657189e+00 0.000000e+00  -2.027086e-01 1.668658e+00 0.000000e+00  1.761850e-02 6.329052e-01 0.000000e+00  1.358487e-02 6.251289e-01 0.000000e+00  1.138393e-02 6.135839e-01 0.000000e+00  1.258025e-02 6.208885e-01 0.000000e+00  -4.147515e-02 9.458136e-01 0.000000e+00  1.510988e-02 1.695812e-01 0.000000e+00  4.702995e-02 5.947415e-01 0.000000e+00  2.861018e-03 1.047270e+00 0.000000e+00  5.095023e-02 3.348706e-01 0.000000e+00  8.773985e-04 2.520634e-01 0.000000e+00  4.654407e-02 3.668628e-01 0.000000e+00  8.369075e-02 8.468722e-01 0.000000e+00  1.869774e-02 8.011598e-01 0.000000e+00  6.571737e-02 7.799466e-01 0.000000e+00  1.161766e-01 6.793986e-01 0.000000e+00  -3.534617e-03 8.164644e-02 0.000000e+00  9.259083e-02 1.073421e+00 0.000000e+00  1.687014e-02 5.264808e-01 0.000000e+00  -2.550787e-02 9.882709e-01 0.000000e+00  -4.597792e-02 9.451876e-01 0.000000e+00  3.831416e-02 7.366374e-01 0.000000e+00  -1.521754e-02 9.098502e-01 0.000000e+00  3.194770e-02 6.553532e-01 0.000000e+00  7.384532e-02 8.194970e-01 0.000000e+00  7.895136e-02 8.297968e-01 0.000000e+00  5.545143e-02 7.777715e-01 0.000000e+00  1.412707e-02 2.429479e-01 0.000000e+00  -2.784179e-02 9.256649e-01 0.000000e+00  3.784903e-04 1.265946e-01 0.000000e+00  -2.338090e-02 9.245133e-01 0.000000e+00  2.371079e-02 6.139415e-01 0.000000e+00  7.048518e-03 1.375923e-01 0.000000e+00  2.136331e-03 1.611639e-01 0.000000e+00  -7.095787e-02 9.928322e-01 0.000000e+00  3.319066e-03 2.556722e-01 0.000000e+00  7.972865e-02 8.582280e-01 0.000000e+00  1.175513e-01 5.883811e-01 0.000000e+00  6.741885e-02 8.101497e-01 0.000000e+00  6.387085e-02 8.154598e-01 0.000000e+00  4.658418e-02 8.522789e-01 0.000000e+00  2.126948e-03 8.955912e-01 0.000000e+00  -2.484985e-04 7.408682e-02 0.000000e+00  2.359455e-02 6.374958e-01 0.000000e+00  4.675635e-02 8.660275e-01 0.000000e+00  1.089529e-02 4.374080e-01 0.000000e+00  3.426707e-03 3.657539e-01 0.000000e+00  -1.929886e-03 1.935764e-01 0.000000e+00  1.612049e-02 8.760958e-01 0.000000e+00  -4.854298e-02 9.705180e-01 0.000000e+00  1.531675e-02 1.658956e-01 0.000000e+00  1.815124e-01 1.017937e+00 0.000000e+00  -6.007224e-03 6.524275e-02 0.000000e+00  2.900261e-02 6.897875e-01 0.000000e+00  9.524878e-03 4.875338e-01 0.000000e+00  -5.445543e-02 9.690920e-01 0.000000e+00  -5.956205e-02 9.587803e-01 0.000000e+00  7.510166e-03 3.014517e-01 0.000000e+00  6.785701e-02 8.393083e-01 0.000000e+00  8.302272e-02 4.866733e-01 0.000000e+00  7.785844e-02 8.315387e-01 0.000000e+00  3.664685e-02 3.235972e-01 0.000000e+00  6.402541e-03 3.857098e-01 0.000000e+00  -4.507479e-02 9.340871e-01 0.000000e+00  3.214823e-02 3.488404e-01 0.000000e+00  -5.077829e-02 1.023258e+00 0.000000e+00  -7.473699e-02 1.032412e+00 0.000000e+00  1.439488e-01 6.830590e-01 0.000000e+00  -3.401736e-02 9.111278e-01 0.000000e+00  1.404551e-02 5.586081e-01 0.000000e+00  -6.033741e-02 1.009115e+00 0.000000e+00  -4.624443e-02 1.001775e+00 0.000000e+00  -5.310141e-02 9.893303e-01 0.000000e+00  1.421768e-01 1.269405e+00 0.000000e+00  -5.174961e-02 9.375594e-01 0.000000e+00  -2.571801e-03 8.808818e-01 0.000000e+00  6.183805e-03 5.409305e-01 0.000000e+00  6.859164e-03 5.231812e-01 0.000000e+00  1.804515e-03 4.572597e-01 0.000000e+00  5.601395e-03 3.718643e-01 0.000000e+00  5.859596e-02 8.339109e-01 0.000000e+00  3.878189e-02 7.854824e-01 0.000000e+00  -8.562751e-02 1.086316e+00 0.000000e+00  4.811486e-03 5.600481e-01 0.000000e+00  -6.170951e-02 9.559838e-01 0.000000e+00  1.348586e-02 6.070701e-01 0.000000e+00  2.068100e-01 1.220008e+00 0.000000e+00  -9.383755e-02 1.042702e+00 0.000000e+00  1.989253e-01 1.050622e+00 0.000000e+00  6.232505e-02 8.479848e-01 0.000000e+00  1.103208e-02 1.407461e+00 0.000000e+00  -4.464737e-02 1.306040e+00 0.000000e+00  4.931247e-02 8.597178e-01 0.000000e+00  -7.776328e-02 1.505550e+00 0.000000e+00  6.062002e-02 8.586582e-01 0.000000e+00  -6.109485e-02 1.553510e+00 0.000000e+00  -7.178984e-02 1.402884e+00 0.000000e+00  -1.029857e-01 1.613098e+00 0.000000e+00  -1.970058e-01 1.667077e+00 0.000000e+00  -1.087977e-01 1.573450e+00 0.000000e+00  -2.045361e-01 1.668056e+00 0.000000e+00  5.359282e-02 8.693569e-01 0.000000e+00  1.668147e-02 6.349966e-01 0.000000e+00  1.074661e-02 6.087571e-01 0.000000e+00  1.339420e-02 9.593953e-01 0.000000e+00  3.915402e-02 4.143187e-01 0.000000e+00  1.223125e-01 8.795670e-01 0.000000e+00  8.658606e-02 8.386981e-01 0.000000e+00  1.876390e-03 1.795511e-01 0.000000e+00  9.935552e-02 7.753773e-01 0.000000e+00  -3.927510e-02 9.388966e-01 0.000000e+00  -1.256065e-02 9.486048e-01 0.000000e+00  7.809592e-02 4.737526e-01 0.000000e+00  1.790602e-02 1.533094e-01 0.000000e+00  3.885191e-02 7.348987e-01 0.000000e+00  2.809172e-03 2.876838e-01 0.000000e+00  2.155738e-02 5.632884e-01 0.000000e+00  -1.609210e-03 1.075438e-01 0.000000e+00  8.043836e-02 8.403835e-01 0.000000e+00  2.093023e-02 8.885829e-01 0.000000e+00  7.646217e-04 8.203265e-02 0.000000e+00  -9.574362e-04 4.602858e-02 0.000000e+00  -4.817306e-02 9.623870e-01 0.000000e+00  8.883501e-02 8.450076e-01 0.000000e+00  3.018907e-02 2.426884e-01 0.000000e+00  8.135763e-02 4.532270e-01 0.000000e+00  1.313105e-02 8.897737e-02 0.000000e+00  6.597023e-02 3.893856e-01 0.000000e+00  1.318362e-01 6.756712e-01 0.000000e+00  3.137234e-02 6.947558e-01 0.000000e+00  -1.694838e-02 9.148519e-01 0.000000e+00  2.757254e-02 1.104049e+00 0.000000e+00  1.756906e-04 1.979383e-01 0.000000e+00  1.651983e-03 2.481631e-01 0.000000e+00  7.429393e-02 8.468157e-01 0.000000e+00  1.801200e-02 8.687517e-01 0.000000e+00  5.848411e-02 8.539089e-01 0.000000e+00  -4.041102e-02 9.346461e-01 0.000000e+00  1.436161e-02 5.269527e-01 0.000000e+00  6.260063e-02 8.071621e-01 0.000000e+00  2.162909e-02 6.191505e-01 0.000000e+00  1.074464e-01 1.181357e+00 0.000000e+00  6.118181e-02 8.416973e-01 0.000000e+00  1.217010e-02 2.288916e-01 0.000000e+00  2.905014e-03 3.408222e-01 0.000000e+00  2.783246e-04 2.431506e-01 0.000000e+00  -5.759220e-02 1.035462e+00 0.000000e+00  8.976376e-03 1.766834e-01 0.000000e+00  1.683084e-03 8.899347e-01 0.000000e+00  4.589766e-02 7.543959e-01 0.000000e+00  -5.274018e-02 9.578567e-01 0.000000e+00  -2.871105e-02 1.053921e+00 0.000000e+00  -6.143076e-02 9.824922e-01 0.000000e+00  1.891887e-01 9.688584e-01 0.000000e+00  -5.361489e-02 9.545539e-01 0.000000e+00  1.063105e-01 5.503046e-01 0.000000e+00  1.625433e-01 9.838435e-01 0.000000e+00  -3.631572e-02 1.012981e+00 0.000000e+00  5.931006e-03 4.576525e-01 0.000000e+00  4.020277e-03 3.988889e-01 0.000000e+00  1.822015e-01 1.181375e+00 0.000000e+00  2.733777e-02 6.650245e-01 0.000000e+00  4.574665e-02 7.676488e-01 0.000000e+00  -3.401395e-03 1.519274e-01 0.000000e+00  -3.485473e-02 9.218357e-01 0.000000e+00  5.809615e-02 4.155907e-01 0.000000e+00  1.847917e-02 3.130821e-01 0.000000e+00  5.535672e-02 8.148859e-01 0.000000e+00  -2.902582e-02 9.116486e-01 0.000000e+00  2.728298e-02 3.301286e-01 0.000000e+00  5.753901e-02 4.095686e-01 0.000000e+00  -5.558342e-02 9.464795e-01 0.000000e+00  -6.963090e-02 9.743840e-01 0.000000e+00  1.776895e-02 6.105673e-01 0.000000e+00  -7.206646e-02 1.015235e+00 0.000000e+00  -4.817356e-02 9.288278e-01 0.000000e+00  7.038744e-02 8.213575e-01 0.000000e+00  5.359445e-03 3.302676e-01 0.000000e+00  4.924393e-03 4.805073e-01 0.000000e+00  -6.659527e-02 9.969087e-01 0.000000e+00  6.558036e-02 8.370442e-01 0.000000e+00  3.097261e-03 4.493721e-01 0.000000e+00  -5.593093e-02 1.017298e+00 0.000000e+00  3.658279e-02 8.512769e-01 0.000000e+00  -2.077593e-02 8.955627e-01 0.000000e+00  6.339931e-04 5.035014e-01 0.000000e+00  3.983786e-03 3.787396e-01 0.000000e+00  -8.751461e-02 1.032010e+00 0.000000e+00  2.509016e-02 6.547519e-01 0.000000e+00  6.926034e-02 8.264925e-01 0.000000e+00  2.932661e-02 7.170036e-01 0.000000e+00  5.051481e-02 3.868374e-01 0.000000e+00  1.244165e-01 6.040200e-01 0.000000e+00  1.559388e-01 1.364313e+00 0.000000e+00  -7.208364e-02 1.080514e+00 0.000000e+00  3.216673e-03 4