<?xml version="1.0"?>
<VTKFile type="UnstructuredGrid"  version="0.1"  >
<UnstructuredGrid>
<Piece  NumberOfPoints="525" NumberOfCells="924">
<Points>
<DataArray  type="Float64"  NumberOfComponents="3"  format="ascii">0 0 0  2.2 0 0  2.2 0.41 0  0 0.41 0  0.15 0.2 0  0.25 0.2 0  0.2 0.15 0  0.2 0.25 0  0.104762 0 0  0.209524 0 0  0.314286 0 0  0.419048 0 0  0.52381 0 0  0.628571 0 0  0.733333 0 0  0.838095 0 0  0.9428569999999999 0 0  1.04762 0 0  1.15238 0 0  1.25714 0 0  1.3619 0 0  1.46667 0 0  1.57143 0 0  1.67619 0 0  1.78095 0 0  1.88571 0 0  1.99048 0 0  2.09524 0 0  2.2 0.1025 0  2.2 0.205 0  2.2 0.3075 0  2.1 0.41 0  2 0.41 0  1.9 0.41 0  1.8 0.41 0  1.7 0.41 0  1.6 0.41 0  1.5 0.41 0  1.4 0.41 0  1.3 0.41 0  1.2 0.41 0  1.1 0.41 0  1 0.41 0  0.9 0.41 0  0.8 0.41 0  0.7 0.41 0  0.6 0.41 0  0.5 0.41 0  0.4 0.41 0  0.3 0.41 0  0.2 0.41 0  0.1 0.41 0  0 0.3075 0  0 0.205 0  0 0.1025 0  0.156699 0.225 0  0.175 0.243301 0  0.225 0.243301 0  0.243301 0.225 0  0.243301 0.175 0  0.225 0.156699 0  0.175 0.156699 0  0.156699 0.175 0  0.352033 0.262216 0  1.04579 0.252253 0  1.24065 0.243419 0  0.985775 0.171509 0  1.30324 0.187395 0  0.890988 0.190768 0  1.39085 0.202767 0  0.801464 0.204685 0  1.49904 0.204666 0  0.704267 0.202289 0  1.60238 0.204951 0  0.487789 0.19191 0  1.72935 0.219637 0  1.83335 0.187427 0  2.03359 0.193642 0  0.314663 0.307348 0  0.249039 0.333583 0  2.12147 0.253405 0  2.06373 0.0836837 0  0.0734726 0.267055 0  0.143989 0.0677174 0  0.0613613 0.33781 0  0.299628 0.236829 0  0.527114 0.295386 0  0.262384 0.26549 0  0.275777 0.18341 0  1.74578 0.330928 0  1.84001 0.302448 0  1.64998 0.313838 0  0.648421 0.302367 0  1.54544 0.308508 0  0.755686 0.306156 0  1.42668 0.314809 0  0.870524 0.298596 0  1.22553 0.112785 0  1.05603 0.147372 0  0.969346 0.329867 0  1.32527 0.276284 0  2.02914 0.29511 0  1.88168 0.119486 0  1.79545 0.104842 0  1.35688 0.0892539 0  1.69041 0.105324 0  0.914199 0.09555660000000001 0  1.58234 0.102923 0  0.61843 0.10815 0  1.47999 0.101161 0  0.725217 0.104273 0  0.821727 0.102306 0  1.96725 0.105778 0  0.418624 0.241547 0  0.135226 0.239087 0  1.14921 0.314841 0  0.404508 0.333259 0  0.590155 0.206269 0  2.12554 0.150731 0  1.93166 0.22436 0  0.104689 0.190046 0  0.267856 0.07447529999999999 0  0.269368 0.221581 0  0.434446 0.114927 0  1.0089 0.07933809999999999 0  0.953023 0.246698 0  1.25853 0.33355 0  1.05268 0.340828 0  2.1369 0.067383 0  0.522398 0.112537 0  1.3421 0.348929 0  0.215186 0.289473 0  0.203197 0.335348 0  1.13984 0.190728 0  1.93813 0.330504 0  1.10505 0.0883705 0  0.341988 0.0824728 0  0.253113 0.138035 0  0.291932 0.131907 0  0.203713 0.102439 0  0.150375 0.134668 0  0.151494 0.309119 0  0.354384 0.17896 0  0.06853670000000001 0.100776 0  0.424128 0.180088 0  0.474925 0.0568661 0  2.10843 0.347669 0  2.160735 0.2804525 0  2.160735 0.2292025 0  2.2 0.25625 0  2.079485 0.04184185 0  2.027105 0.04184185 0  2.04286 0 0  0.1767565 0.0338587 0  0.1243755 0.0338587 0  0.157143 0 0  0.08068065000000001 0.373905 0  0.03068065 0.373905 0  0.05 0.41 0  0.03068065 0.322655 0  0 0.35875 0  0.281851 0.3204655 0  0.2745195 0.3717915 0  0.3073315 0.358674 0  0.06741695 0.3024325 0  0.0367363 0.2872775 0  0.3071455 0.2720885 0  0.3258305 0.2495225 0  0.333348 0.284782 0  0.2557115 0.2995365 0  0.2885235 0.286419 0  2.075305 0.2742575 0  2.031365 0.244376 0  2.07753 0.2235235 0  2.01549 0.09473085000000001 0  1.978865 0.052889 0  2.00042 0.14971 0  2.04866 0.13866285 0  0.472869 0.2684665 0  0.4532065 0.2167285 0  0.5074514999999999 0.243648 0  2.16277 0.1778655 0  2.16277 0.1266155 0  2.2 0.15375 0  1.90667 0.171923 0  1.882505 0.2058935 0  1.857515 0.1534565 0  1.885835 0.263404 0  1.83668 0.2449375 0  0.6042925 0.1572095 0  0.647211 0.204279 0  0.6613485 0.1552195 0  0.3595855 0.3203035 0  0.3782705 0.2977375 0  0.155113 0.241194 0  0.1459625 0.2320435 0  0.1658495 0.2341505 0  0.259539 0.179205 0  0.2628885 0.191705 0  0.2466505 0.1875 0  0.281006 0.2511595 0  1.0209025 0.1594405 0  1.05091 0.1998125 0  1.0157825 0.211881 0  1.264385 0.15009 0  1.23309 0.178102 0  1.271945 0.215407 0  1.291205 0.10101945 0  1.33006 0.13832445 0  0.928528 0.0477783 0  0.876147 0.0477783 0  0.890476 0 0  0.9025935 0.1431623 0  0.9499869999999999 0.1335328 0  0.9383815 0.1811385 0  0.867963 0.0989313 0  0.8563575 0.146537 0  0.8299110000000001 0.051153 0  1.411775 0.04462695 0  1.35939 0.04462695 0  1.414285 0 0  1.373865 0.14601045 0  1.347045 0.195081 0  1.418435 0.09520745 0  1.43542 0.151964 0  1.47333 0.0505805 0  0.7775300000000001 0.051153 0  0.785714 0 0  0.8115954999999999 0.1534955 0  0.8462259999999999 0.1977265 0  0.7734719999999999 0.1032895 0  0.7633405 0.154479 0  0.729275 0.0521365 0  1.52571 0.0505805 0  1.51905 0 0  1.489515 0.1529135 0  1.444945 0.2037165 0  1.531165 0.102042 0  1.54069 0.1537945 0  1.576885 0.0514615 0  1.9804 0.259735 0  1.982625 0.209001 0  1.820005 0.356224 0  1.870005 0.356224 0  1.85 0.41 0  1.78468 0.2610425 0  1.78135 0.203532 0  1.72289 0.370464 0  1.77289 0.370464 0  1.75 0.41 0  1.792895 0.316688 0  1.737565 0.2752825 0  1.62499 0.361919 0  1.67499 0.361919 0  1.65 0.41 0  1.69788 0.322383 0  1.689665 0.2667375 0  1.62618 0.2593945 0  1.665865 0.212294 0  0.6242105 0.3561835 0  0.6742105 0.3561835 0  0.6499999999999999 0.41 0  0.6192880000000001 0.254318 0  0.6763440000000001 0.252328 0  1.52272 0.359254 0  1.57272 0.359254 0  1.55 0.41 0  1.59771 0.311173 0  1.57391 0.2567295 0  1.52224 0.256587 0  1.55071 0.2048085 0  0.727843 0.358078 0  0.7778430000000001 0.358078 0  0.75 0.41 0  0.7020535 0.3042615 0  0.7299765 0.2542225 0  0.778575 0.2554205 0  0.7528655 0.203487 0  1.41334 0.3624045 0  1.46334 0.3624045 0  1.45 0.41 0  1.48606 0.3116585 0  1.46286 0.2597375 0  1.408765 0.258788 0  0.8352619999999999 0.354298 0  0.885262 0.354298 0  0.8500000000000001 0.41 0  0.813105 0.302376 0  0.8359939999999999 0.2516405 0  0.880756 0.244682 0  0.9346730000000001 0.3699335 0  0.984673 0.3699335 0  0.95 0.41 0  0.9199349999999999 0.3142315 0  0.676894 0.0521365 0  0.680952 0 0  0.714742 0.153281 0  0.6718235 0.1062115 0  0.6235005 0.054075 0  1.629265 0.0514615 0  1.62381 0 0  1.59236 0.153937 0  1.636375 0.1041235 0  1.646395 0.1551375 0  1.6833 0.052662 0  1.73568 0.052662 0  1.72857 0 0  1.70988 0.1624805 0  1.74293 0.105083 0  1.7624 0.1622395 0  1.7882 0.052421 0  1.84058 0.052421 0  1.83333 0 0  1.8144 0.1461345 0  1.838565 0.112164 0  1.883695 0.059743 0  1.124605 0.3624205 0  1.174605 0.3624205 0  1.15 0.41 0  1.314255 0.2318395 0  1.28296 0.2598515 0  1.35806 0.2395255 0  1.375975 0.2955465 0  1.92648 0.052889 0  1.938095 0 0  1.924465 0.112632 0  1.949455 0.165069 0  0.352254 0.3716295 0  0.402254 0.3716295 0  0.35 0.41 0  0.513557 0.352693 0  0.563557 0.352693 0  0.55 0.41 0  0.5877675 0.2988765 0  0.5586344999999999 0.2508275 0  0.538972 0.1990895 0  0.452254 0.3716295 0  0.45 0.41 0  0.465811 0.3143225 0  0.411566 0.287403 0  0.3853285 0.2518815 0  0.1199575 0.2145665 0  0.0890808 0.2285505 0  0.1043493 0.253071 0  0.2245195 0.3717915 0  0.25 0.41 0  0.291071 0.03723765 0  0.23869 0.03723765 0  0.261905 0 0  0.265876 0.2435355 0  0.2563345 0.2232905 0  0.2528425 0.245245 0  0.284498 0.229205 0  1.032465 0.11335505 0  0.9973375 0.12542355 0  0.9615494999999999 0.08744735000000001 0  0.9220055 0.218733 0  0.9693989999999999 0.2091035 0  0.9611845 0.2882825 0  0.9117735 0.272647 0  1.229265 0.371775 0  1.279265 0.371775 0  1.25 0.41 0  1.02634 0.375414 0  1.07634 0.375414 0  1.05 0.41 0  1.011013 0.3353475 0  2.11607 0.0336915 0  2.16845 0.0336915 0  2.14762 0 0  2.16845 0.0849415 0  2.2 0.05125 0  2.100315 0.07553335 0  0.5562765000000001 0.159403 0  0.570414 0.1103435 0  0.5050935 0.1522235 0  1.32105 0.3794645 0  1.37105 0.3794645 0  1.35 0.41 0  1.333685 0.3126065 0  1.38439 0.331869 0  0.9994065 0.2494755 0  1.007568 0.29106 0  1.300315 0.3412395 0  1.2919 0.304917 0  2.13122 0.109057 0  2.094635 0.11720735 0  0.2725725 0.2024955 0  0.259684 0.2107905 0  0.2466505 0.2125 0  0.2877025 0.2101195 0  2.123505 0.202068 0  2.079565 0.1721865 0  1.02826 0.03966905 0  0.9758784999999999 0.03966905 0  0.9952384999999999 0 0  1.049235 0.2965405 0  1.100945 0.3278345 0  1.0975 0.283547 0  0.5711200000000001 0.054075 0  0.5761905 0 0  0.523104 0.0562685 0  1.24959 0.2884845 0  1.20387 0.3241955 0  1.19493 0.27913 0  0.238785 0.2774815 0  0.2321125 0.311528 0  0.226118 0.3344655 0  0.2015985 0.3726739999999999 0  1.144525 0.2527845 0  1.190245 0.2170735 0  1.092815 0.2214905 0  0.2091915 0.3124105 0  0.220093 0.266387 0  0.243692 0.2543955 0  0.2341505 0.2341505 0  0.478422 0.113732 0  0.4611175 0.1534185 0  1.919065 0.370252 0  1.969065 0.370252 0  1.95 0.41 0  1.983635 0.312807 0  2.01457 0.352555 0  1.88907 0.316476 0  1.934895 0.277432 0  1.182685 0.1517565 0  1.097935 0.16905 0  1.128715 0.04418525 0  1.076335 0.04418525 0  1.1 0 0  1.056975 0.08385429999999999 0  1.08054 0.11787125 0  1.122445 0.13954925 0  1.16529 0.10057775 0  0.304922 0.07847404999999999 0  0.328137 0.0412364 0  0.380518 0.0412364 0  0.366667 0 0  0.388217 0.09869990000000001 0  0.426747 0.0574635 0  0.31696 0.1071899 0  0.279894 0.10319115 0  0.2725225 0.134971 0  0.2604845 0.10625515 0  0.228413 0.120237 0  0.2143565 0.129569 0  0.2390565 0.147367 0  1.30701 0.04462695 0  1.30952 0 0  1.241335 0.0563925 0  0.2357845 0.08845715 0  1.188955 0.0563925 0  1.20476 0 0  0.2066185 0.0512195 0  0.173851 0.08507819999999999 0  0.0367363 0.2360275 0  0 0.25625 0  0.264445 0.1607225 0  0.248207 0.1565175 0  0.2341505 0.1658495 0  0.2838545 0.1576585 0  0.130694 0.182523 0  0.1273445 0.195023 0  0.1533495 0.1875 0  0.127532 0.162357 0  0.153537 0.154834 0  0.0523445 0.197523 0  0.14336 0.274103 0  0.1124833 0.288087 0  0.3150805 0.181185 0  0.327006 0.2078945 0  0.323158 0.1554335 0  0.08664935 0.050388 0  0.03426835 0.050388 0  0.052381 0 0  0.03426835 0.101638 0  0 0.05125 0  0.421376 0.2108175 0  0.4559585 0.185999 0  0.429287 0.1475075 0  0.10642765 0.3234645 0  0.353208
[...]
<PointData  Vectors="u"> 
<DataArray  type="Float64"  Name="u"  NumberOfComponents="3" format="ascii">0.0000000000000000e+00 0.0000000000000000e+00 0.0000000000000000e+00  0.0000000000000000e+00 0.0000000000000000e+00 0.0000000000000000e+00  0.0000000000000000e+00 0.0000000000000000e+00 0.0000000000000000e+00  0.0000000000000000e+00 0.0000000000000000e+00 0.0000000000000000e+00  0.0000000000000000e+00 0.0000000000000000e+00 0.0000000000000000e+00  0.0000000000000000e+00 0.0000000000000000e+00 0.0000000000000000e+00  0.0000000000000000e+00 0.0000000000000000e+00 0.0000000000000000e+00  0.0000000000000000e+00 0.0000000000000000e+00 0.0000000000000000e+00  0.0000000000000000e+00 0.0000000000000000e+00 0.0000000000000000e+00  0.0000000000000000e+00 0.0000000000000000e+00 0.0000000000000000e+00  0.0000000000000000e+00 0.0000000000000000e+00 0.0000000000000000e+00  0.0000000000000000e+00 0.0000000000000000e+00 0.0000000000000000e+00  0.0000000000000000e+00 0.0000000000000000e+00 0.0000000000000000e+00  0.0000000000000000e+00 0.0000000000000000e+00 0.0000000000000000e+00  0.0000000000000000e+00 0.0000000000000000e+00 0.0000000000000000e+00  0.0000000000000000e+00 0.0000000000000000e+00 0.0000000000000000e+00  0.0000000000000000e+00 0.0000000000000000e+00 0.0000000000000000e+00  0.0000000000000000e+00 0.0000000000000000e+00 0.0000000000000000e+00  0.0000000000000000e+00 0.0000000000000000e+00 0.0000000000000000e+00  0.0000000000000000e+00 0.0000000000000000e+00 0.0000000000000000e+00  0.0000000000000000e+00 0.0000000000000000e+00 0.0000000000000000e+00  0.0000000000000000e+00 0.0000000000000000e+00 0.0000000000000000e+00  0.0000000000000000e+00 0.0000000000000000e+00 0.0000000000000000e+00  0.0000000000000000e+00 0.0000000000000000e+00 0.0000000000000000e+00  0.0000000000000000e+00 0.0000000000000000e+00 0.0000000000000000e+00  0.0000000000000000e+00 0.0000000000000000e+00 0.0000000000000000e+00  0.0000000000000000e+00 0.0000000000000000e+00 0.0000000000000000e+00  0.0000000000000000e+00 0.0000000000000000e+00 0.0000000000000000e+00  1.1250000003525751e+00 2.9669531357209936e-10 0.0000000000000000e+00  1.5000000000001483e+00 4.8150371419862396e-10 0.0000000000000000e+00  1.1249999996476452e+00 2.9626710709754452e-10 0.0000000000000000e+00  0.0000000000000000e+00 0.0000000000000000e+00 0.0000000000000000e+00  0.0000000000000000e+00 0.0000000000000000e+00 0.0000000000000000e+00  0.0000000000000000e+00 0.0000000000000000e+00 0.0000000000000000e+00  0.0000000000000000e+00 0.0000000000000000e+00 0.0000000000000000e+00  0.0000000000000000e+00 0.0000000000000000e+00 0.0000000000000000e+00  0.0000000000000000e+00 0.0000000000000000e+00 0.0000000000000000e+00  0.0000000000000000e+00 0.0000000000000000e+00 0.0000000000000000e+00  0.0000000000000000e+00 0.0000000000000000e+00 0.0000000000000000e+00  0.0000000000000000e+00 0.0000000000000000e+00 0.0000000000000000e+00  0.0000000000000000e+00 0.0000000000000000e+00 0.0000000000000000e+00  0.0000000000000000e+00 0.0000000000000000e+00 0.0000000000000000e+00  0.0000000000000000e+00 0.0000000000000000e+00 0.0000000000000000e+00  0.0000000000000000e+00 0.0000000000000000e+00 0.0000000000000000e+00  0.0000000000000000e+00 0.0000000000000000e+00 0.0000000000000000e+00  0.0000000000000000e+00 0.0000000000000000e+00 0.0000000000000000e+00  0.0000000000000000e+00 0.0000000000000000e+00 0.0000000000000000e+00  0.0000000000000000e+00 0.0000000000000000e+00 0.0000000000000000e+00  0.0000000000000000e+00 0.0000000000000000e+00 0.0000000000000000e+00  0.0000000000000000e+00 0.0000000000000000e+00 0.0000000000000000e+00  0.0000000000000000e+00 0.0000000000000000e+00 0.0000000000000000e+00  0.0000000000000000e+00 0.0000000000000000e+00 0.0000000000000000e+00  1.1250000000000000e+00 0.0000000000000000e+00 0.0000000000000000e+00  1.5000000000000002e+00 0.0000000000000000e+00 0.0000000000000000e+00  1.1250000000000002e+00 0.0000000000000000e+00 0.0000000000000000e+00  0.0000000000000000e+00 0.0000000000000000e+00 0.0000000000000000e+00  0.0000000000000000e+00 0.0000000000000000e+00 0.0000000000000000e+00  0.0000000000000000e+00 0.0000000000000000e+00 0.0000000000000000e+00  0.0000000000000000e+00 0.0000000000000000e+00 0.0000000000000000e+00  0.0000000000000000e+00 0.0000000000000000e+00 0.0000000000000000e+00  0.0000000000000000e+00 0.0000000000000000e+00 0.0000000000000000e+00  0.0000000000000000e+00 0.0000000000000000e+00 0.0000000000000000e+00  0.0000000000000000e+00 0.0000000000000000e+00 0.0000000000000000e+00  1.2572563789121414e+00 -3.2193383563505945e-01 0.0000000000000000e+00  1.4202801252964563e+00 4.8792637561997191e-05 0.0000000000000000e+00  1.4473151516409266e+00 5.3004868624042697e-06 0.0000000000000000e+00  1.4599975931700027e+00 7.6160391358213309e-05 0.0000000000000000e+00  1.4889375373767009e+00 1.9412183423958134e-06 0.0000000000000000e+00  1.4928164047687467e+00 9.6600834157000692e-05 0.0000000000000000e+00  1.4998220137536236e+00 4.8336762442645053e-08 0.0000000000000000e+00  1.5000903251473983e+00 -8.1642838849545953e-05 0.0000000000000000e+00  1.4999960169599187e+00 -2.9034117277163093e-07 0.0000000000000000e+00  1.4999128475230683e+00 -1.1513226864579167e-03 0.0000000000000000e+00  1.4999999142863913e+00 -1.6959826298992267e-07 0.0000000000000000e+00  1.4598112666291567e+00 -8.0755360010324531e-03 0.0000000000000000e+00  1.4923530656217381e+00 -4.8537886066871925e-08 0.0000000000000000e+00  1.4889776195667268e+00 -1.1550768289606708e-08 0.0000000000000000e+00  1.4953954493928743e+00 7.3212716698445491e-10 0.0000000000000000e+00  1.4240539818150195e+00 -4.2298329613858621e-01 0.0000000000000000e+00  1.7432808237673711e+00 -2.7183768888561849e-01 0.0000000000000000e+00  1.4163696358216482e+00 5.7418137224826168e-10 0.0000000000000000e+00  9.7468252401903355e-01 3.5968963318804650e-10 0.0000000000000000e+00  1.2768914756693590e+00 5.5553600237860457e-01 0.0000000000000000e+00  1.5454035880700101e+00 -2.9186564284006156e-01 0.0000000000000000e+00  1.0790722276226608e+00 2.8961444611072379e-01 0.0000000000000000e+00  8.3719111160560156e-01 -4.1153644685014668e-01 0.0000000000000000e+00  1.2182304274073097e+00 -2.3182345059720475e-02 0.0000000000000000e+00  1.1388627007155823e+00 -6.0685361281795269e-01 0.0000000000000000e+00  3.5343771744916996e-01 2.2214749572279466e-01 0.0000000000000000e+00  9.3398474626005401e-01 -1.3596649068305256e-08 0.0000000000000000e+00  1.1610548733895043e+00 -5.4850584786436239e-09 0.0000000000000000e+00  1.0771906637149786e+00 -5.5262883482862820e-08 0.0000000000000000e+00  1.1628925693317438e+00 -2.1042654085311149e-03 0.0000000000000000e+00  1.1175883333032715e+00 -1.3770394833952397e-07 0.0000000000000000e+00  1.1346734298678329e+00 -7.7255884309171576e-05 0.0000000000000000e+00  1.0696131828402100e+00 -1.3812899406681079e-07 0.0000000000000000e+00  1.1871732332277447e+00 9.6297849053278439e-05 0.0000000000000000e+00  1.1964831451997153e+00 4.1912001993261706e-06 0.0000000000000000e+00  1.3814884788157276e+00 4.0714016762389305e-05 0.0000000000000000e+00  9.4340236664004318e-01 4.0079951025013467e-05 0.0000000000000000e+00  1.3186291053451427e+00 8.3149753145956825e-07 0.0000000000000000e+00  1.2101792220164052e+00 5.3017120691896972e-10 0.0000000000000000e+00  1.2389894989620356e+00 -2.8610900778631981e-09 0.0000000000000000e+00  1.1419408024739384e+00 -1.0847637446634607e-08 0.0000000000000000e+00  1.0218142322236177e+00 1.1276059316636854e-07 0.0000000000000000e+00  1.1453787205881929e+00 -4.1559952690753205e-08 0.0000000000000000e+00  1.0725871719858471e+00 4.5934114717927856e-05 0.0000000000000000e+00  1.1280885869492705e+00 -1.0948904891439791e-07 0.0000000000000000e+00  1.1638785328469896e+00 -6.5732553600300278e-04 0.0000000000000000e+00  1.1151381021944715e+00 -1.7670671384417253e-07 0.0000000000000000e+00  1.1377628809855185e+00 -4.5933379360867804e-04 0.0000000000000000e+00  1.1237224182708818e+00 -3.4612468831491817e-05 0.0000000000000000e+00  1.1486018352651077e+00 1.4837335966495499e-10 0.0000000000000000e+00  1.3694911762955002e+00 -1.0754839605635741e-01 0.0000000000000000e+00  6.1551445884832612e-01 5.5034858639410866e-01 0.0000000000000000e+00  1.0693519661548567e+00 8.9551276414597066e-06 0.0000000000000000e+00  1.0355342289975824e+00 -1.1285793779801467e-01 0.0000000000000000e+00  1.4974071148270807e+00 -6.0145483194536309e-03 0.0000000000000000e+00  1.3948795592341263e+00 5.4765990612724528e-10 0.0000000000000000e+00  1.4866219058312347e+00 -1.2544500092841626e-09 0.0000000000000000e+00  6.4291154432903219e-01 -1.0370014624020757e-01 0.0000000000000000e+00  1.5334505924456456e+00 3.2571030758802200e-01 0.0000000000000000e+00  3.2796227092780400e-01 -2.9500661549361656e-01 0.0000000000000000e+00  1.2048326183944018e+00 7.6809713443480074e-02 0.0000000000000000e+00  9.3642607475028650e-01 2.5583858383783455e-05 0.0000000000000000e+00  1.4378964641720657e+00 9.5212981578357572e-05 0.0000000000000000e+00  9.1016794503609166e-01 1.2618909320443005e-06 0.0000000000000000e+00  8.4145882345138778e-01 1.5371506546340178e-05 0.0000000000000000e+00  8.2402955357037966e-01 1.9297937259184746e-10 0.0000000000000000e+00  1.1912880200368274e+00 1.0237911721306709e-02 0.0000000000000000e+00  7.6059921105143524e-01 8.5620331761066241e-08 0.0000000000000000e+00  1.7061998874640625e+00 -1.9228418281166051e-01 0.0000000000000000e+00  1.8807079270982989e+00 -1.0971731122001548e-02 0.0000000000000000e+00  1.4927321496089498e+00 2.1224380920151377e-05 0.0000000000000000e+00  9.3778986128590047e-01 -1.0790643757915977e-10 0.0000000000000000e+00  1.0145054820274881e+00 1.3033692315774657e-05 0.0000000000000000e+00  1.1773493569202735e+00 2.5160463081848694e-01 0.0000000000000000e+00  1.0149760377275243e+00 5.5242501264722632e-01 0.0000000000000000e+00  1.1502796902108969e+00 5.4162494714497655e-01 0.0000000000000000e+00  1.7629107927659284e+00 3.6382682043803460e-02 0.0000000000000000e+00  1.1086878949255250e+00 -5.7216632749781571e-01 0.0000000000000000e+00  1.7689225744861674e+00 4.6039651185125985e-01 0.0000000000000000e+00  1.1162227687090640e+00 1.0845591660049016e-01 0.0000000000000000e+00  1.2373750117744924e+00 -4.1495494869802546e-01 0.0000000000000000e+00  1.3666981797415478e+00 2.2645589408137021e-02 0.0000000000000000e+00  7.3343322759502527e-01 1.6531711722632146e-02 0.0000000000000000e+00  7.7348803406352784e-01 1.9203904201195872e-10 0.0000000000000000e+00  1.2967966769149228e+00 4.0784450706526616e-10 0.0000000000000000e+00  1.4790924088895876e+00 5.1618325130283425e-10 0.0000000000000000e+00  1.4062499997488500e+00 4.3088002532636615e-10 0.0000000000000000e+00  5.4983050944350764e-01 1.1156058667420567e-10 0.0000000000000000e+00  5.4983050970671943e-01 1.3121368023789028e-10 0.0000000000000000e+00  0.0000000000000000e+00 0.0000000000000000e+00 0.0000000000000000e+00  1.1453931538746276e+00 -4.8767493435131398e-02 0.0000000000000000e+00  9.2480456070011163e-01 -1.0608044474403908e-01 0.0000000000000000e+00  0.0000000000000000e+00 0.0000000000000000e+00 0.0000000000000000e+00  7.3585928737771722e-01 1.1228704718006265e-01 0.0000000000000000e+00  5.2708571145460315e-01 5.3629537107285651e-02 0.0000000000000000e+00  0.0000000000000000e+00 0.0000000000000000e+00 0.0000000000000000e+00  1.0630090556684904e+00 2.2634629755324387e-01 0.0000000000000000e+00  6.5624999999999967e-01 0.0000000000000000e+00 0.0000000000000000e+00  1.5923076300694690e+00 -4.0904732493227131e-01 0.0000000000000000e+00  1.0808790627641389e+00 -1.0673688376429034e-01 0.0000000000000000e+00  1.1327570703878360e+00 -1.6807934087427023e-01 0.0000000000000000e+00  1.3057909158472540e+00 4.8669243445243332e-01 0.0000000000000000e+00  1.2798135243621347e+00 3.5163233708241226e-01 0.0000000000000000e+00  1.2530441118580855e+00 -5.2550111453621873e-01 0.0000000000000000e+00  1.1112387731271318e+00 -3.8752455521167972e-01 0.0000000000000000e+00  1.3240039259646426e+00 -4.1184289093366566e-01 0.0000000000000000e+00  1.6727769329073685e+00 -4.9083175200347579e-01 0.0000000000000000e+00  1.4135796064530066e+00 -5.6872702470365732e-01 0.0000000000000000e+00  1.3287947176813404e+00 6.1134726882481272e-10 0.0000000000000000e+00  1.4446590342220034e+00 6.9239293291928349e-10 0.0000000000000000e+00  1.4877530020852139e+00 7.4146174007328255e-10 0.0000000000000000e+00  1.0659981413155495e+00 4.1361378691349100e-10 0.0000000000000000e+00  6.7414314269011977e-01 1.4582754823835776e-10 0.0000000000000000e+00  1.3908869454716268e+00 4.8964195376129290e-10 0.0000000000000000e+00  1.3429285860386788e+00 6.4415652023999362e-10 0.0000000000000000e+00  1.3537693027932809e+00 -6.0323445112311053e-02 0.0000000000000000e+00  1.4333178862097158e+00 -3.8670004994966478e-02 0.0000000000000000e+00  1.4362782267068332e+00 -2.9995597427381050e-02 0.0000000000000000e+00  1.4737198898841184e+00 5.0893059834874867e-10 0.0000000000000000e+00  1.2806973291615524e+00 3.9595884338800978e-10 0.0000000000000000e+00  1.4062500002515415e+00 4.3100796584425494e-10 0.0000000000000000e+00  1.4609486760179875e+00 -2.5361448448575197e-09 0.0000000000000000e+00  1.4999715047451037e+00 -4.7971028650956901e-09 0.0000000000000000e+00  1.4051731435040438e+00 -6.5395759499269101e-09 0.0000000000000000e+00  1.3782500699368765e+00 -3.5037631032536670e-09 0.0000000000000000e+00  1.4430694640224564e+00 -1.0116071573789542e-08 0.0000000000000000e+00  1.4161365699661639e+00 -2.1069262585264020e-03 0.0000000000000000e+00  1.4997634791224905e+00 -2.8041582292262775e-03 0.0000000000000000e+00  1.4110302956031209e+00 -1.5718016135535988e-03 0.0000000000000000e+00  1.2365975287344873e+00 -2.4221080546509566e-01 0.0000000000000000e+00  1.2773081208548693e+00 -2.3497176326454175e-01 0.0000000000000000e+00  4.3433202889320155e-01 3.7710064443634328e-01 0.0000000000000000e+00  3.3459165441755839e-01 3.9053778833224834e-01 0.0000000000000000e+00  0.0000000000000000e+00 0.0000000000000000e+00 0.0000000000000000e+00  1.9135621918978521e-01 2.4044871276623495e-01 0.0000000000000000e+00  1.2353038457591047e-01 9.5371364227747890e-02 0.0000000000000000e+00  0.0000000000000000e+00 0.0000000000000000e+00 0.0000000000000000e+00  9.1747452087397507e-01 -5.6101517976920823e-01 0.0000000000000000e+00  1.4259427306064407e+00 5.7533280452718990e-05 0.0000000000000000e+00  1.4990427297051647e+00 5.1439490538579252e-05 0.0000000000000000e+00  1.4983066998628500e+00 6.8126680916056793e-05 0.0000000000000000e+00  1.3923825425750376e+00 3.3089800441795558e-06 0.0000000000000000e+00  1.4741770126541585e+00 6.2270845034641150e-06 0.0000000000000000e+00  1.4961340633466811e+00 3.4986083327817763e-06 0.0000000000000000e+00  1.1140888037150289e+00 1.1303787666448782e-06 0.0000000000000000e+00  1.3413219339357383e+00 7.7940210774333803e-07 0.0000000000000000e+00  6.1779535967628296e-01 1.5618795578786659e-05 0.0000000000000000e+00  6.1782192280453041e-01 1.1900740246286939e-05 0.0000000000000000e+00  0.0000000000000000e+00 0.0000000000000000e+00 0.0000000000000000e+00  1.3636123540951970e+00 7.4357543127861661e-05 0.0000000000000000e+00  1.3177725574447849e+00 6.9706768556943103e-05 0.0000000000000000e+00  1.4797167508808045e+00 9.5689981058963002e-05 0.0000000000000000e+00  1.0985728040022553e+00 2.9348375913089191e-05 0.0000000000000000e+00  1.3781268606646193e+00 3.6926519671898292e-05 0.0000000000000000e+00  6.5530197187827099e-01 -4.9264554340574721e-06 0.0000000000000000e+00  5.8199192132038824e-01 -4.8936623537284571e-08 0.0000000000000000e+00  5.8199188219640541e-01 4.4941019775717519e-09 0.0000000000000000e+00  0.0000000000000000e+00 0.0000000000000000e+00 0.0000000000000000e+00  1.3757962883331285e+00 1.5767771336543371e-07 0.0000000000000000e+00  1.4964882641990211e+00 6.8051198994004941e-07 0.0000000000000000e+00  1.0697412215733932e+00 -1.2515963954193687e-07 0.0000000000000000e+00  1.3996017396577651e+00 -2.1009911619626193e-07 0.0000000000000000e+00  6.4888552516624154e-01 -6.5710115544867302e-08 0.0000000000000000e+00  6.5524964976852340e-01 -5.6620704634563253e-05 0.0000000000000000e+00  0.0000000000000000e+00 0.0000000000000000e+00 0.0000000000000000e+00  1.4054514357056020e+00 -7.3782404187466204e-05 0.0000000000000000e+00  1.4981733266407291e+00 5.1903801195382961e-05 0.0000000000000000e+00  1.1308388866869161e+00 -1.8858002540598958e-04 0.0000000000000000e+00  1.4090162435019817e+00 -3.4129919092621661e-04 0.0000000000000000e+00  6.6585456809808641e-01 -1.4909396957268566e-04 0.0000000000000000e+00  6.4888563022284307e-01 -5.2895182768041867e-08 0.0000000000000000e+00  0.0000000000000000e+00 0.0000000000000000e+00 0.0000000000000000e+00  1.4031644541826582e+00 -2.6204285837503451e-07 0.0000000000000000e+00  1.4999411950074315e+00 -2.5059299887957007e-07 0.0000000000000000e+00  1.1216410577360147e+00 -1.5012415881674828e-07 0.0000000000000000e+00  1.4064125932298697e+00 -2.2248912468709979e-07 0.0000000000000000e+00  6.5856962097777183e-01 -3.8132832913099678e-08 0.0000000000000000e+00  1.3930664992124793e+00 2.5824113964558334e-10 0.0000000000000000e+00  1.4994286257239751e+00 2.5843338868931708e-10 0.0000000000000000e+00  6.8374664678540698e-01 -2.1964709958893353e-09 0.0000000000000000e+00  6.8374664416073661e-01 -8.0112515178560295e-10 0.0000000000000000e+00  0.0000000000000000e+00 0.0000000000000000e+00 0.0000000000000000e+00  1.3878966714593732e+00 -2.0200120294696206e-08 0.0000000000000000e+00  1.4999230804278023e+00 -2.5472583686078015e-08 0.0000000000000000e+00  5.2278400186200813e-01 -5.1969405457615838e-09 0.0000000000000000e+00  5.2278399272515175e-01 -2.5897397516839103e-09 0.0000000000000000e+00  0.0000000000000000e+00 0.0000000000000000e+00 0.0000000000000000e+00  1.0547575566597502e+00 -9.3055656723846576e-09 0.0000000000000000e+00  1.3236896159064244e+00 -3.3316390922951680e-08 0.0000000000000000e+00  6.2110991218503653e-01 -2.2091612949428810e-08 0.0000000000000000e+00  6.2110987940439844e-01 -1.3195870720445688e-08 0.0000000000000000e+00  0.0000000000000000e+00 0.0000000000000000e+00 0.0000000000000000e+00  1.0081938979771965e+00 -2.8889928341568778e-08 0.0000000000000000e+00  1.3639553386243692e+00 -6.1716089429978409e-08 0.0000000000000000e+00  1.3943928697353474e+00 -1.1965566326594991e-07 0.0000000000000000e+00  1.4981010496450862e+00 -9.6987486781802817e-08 0.0000000000000000e+00  6.8548606928529532e-01 -1.1016882020103134e-03 0.0000000000000000e+00  6.8430945521546560e-01 -3.1163488992575969e-04 0.0000000000000000e+00  0.0000000000000000e+00 0.0000000000000000e+00 0.0000000000000000e+00  1.4141361136167923e+00 -5.1027065992723143e-03 0.0000000000000000e+00  1.4206062409683580e+00 -1.8039500824378336e-03 0.0000000000000000e+00  6.5070943278875282e-01 -5.3784803549004678e-08 0.0000000000000000e+00  6.5070935405105046e-01 -3.8360726300329382e-08 0.0000000000000000e+00  0.0000000000000000e+00 0.0000000000000000e+00 0.0000000000000000e+00  1.0976429858874968e+00 -9.1858687169246902e-08 0.0000000000000000e+00  1.4044876322587669e+00 -1.8204997418964859e-07 0.0000000000000000e+00  1.4050131831245980e+00 -2.4152820261875255e-07 0.0000000000000000e+00  1.4999986905260605e+00 -2.3908922034241141e-07 0.0000000000000000e+00  6.6338645009194153e-01 -2.8540145136395674e-05 0.0000000000000000e+00  6.6335737769204828e-01 3.2949188668426150e-05 0.0000000000000000e+00  0.0000000000000000e+00 0.0000000000000000e+00 0.0000000000000000e+00  1.1485867131532277e+00 -5.8525437846437822e-04 0.0000000000000000e+00  1.4137340615119911e+00 -5.6099248712035866e-04 0.0000000000000000e+00  1.4092857700805599e+00 -1.0728030768148572e-04 0.0000000000000000e+00  1.5000780866639081e+00 -4.3465982473308841e-04 0.0000000000000000e+00  6.1566335160095109e-01 -5.2949213277677793e-08 0.0000000000000000e+00  6.1566325419861978e-01 -6.0717734631799205e-08 0.0000000000000000e+00  0.0000000000000000e+00 0.0000000000000000e+00 0.0000000000000000e+00  1.0939550381188161e+00 -1.6892195231593923e-07 0.0000000000000000e+00  1.3930569765749996e+00 -2.5292069406667578e-07