<?xml version="1.0"?>
<VTKFile type="UnstructuredGrid"  version="0.1"  >
<UnstructuredGrid>
<Piece  NumberOfPoints="2868" NumberOfCells="5400">
<Points>
<DataArray  type="Float32"  NumberOfComponents="3"  format="ascii">0.534923 0.326073 0  0.510642 0.314196 0  0.466125 0.293082 0  0.436448 0.281205 0  0.409468 0.275927 0  0.368998 0.270648 0  0.35281 0.275927 0  0.381139 0.302319 0  0.405421 0.326073 0  0.410817 0.33531 0  0.408119 0.349826 0  0.400025 0.357744 0  0.375743 0.368301 0  0.329878 0.392055 0  0.297502 0.432963 0  0.282663 0.476511 0  0.285361 0.524018 0  0.298851 0.572845 0  0.317737 0.604516 0  0.337972 0.636187 0  0.360904 0.674457 0  0.368998 0.69953 0  0.359555 0.721964 0  0.360904 0.757594 0  0.370347 0.766831 0  0.381139 0.762872 0  0.390582 0.741758 0  0.404072 0.720644 0  0.424307 0.707448 0  0.447239 0.702169 0  0.480964 0.704808 0  0.479615 0.688973 0  0.468823 0.675776 0  0.447239 0.669178 0  0.428354 0.669178 0  0.410817 0.6639 0  0.404072 0.653343 0  0.395978 0.628269 0  0.387884 0.59132 0  0.389233 0.576804 0  0.397327 0.557009 0  0.410817 0.547772 0  0.424307 0.546452 0  0.437797 0.55305 0  0.44589 0.566247 0  0.441843 0.582082 0  0.439145 0.597918 0  0.449937 0.609795 0  0.468823 0.603196 0  0.479615 0.59 0  0.489058 0.570205 0  0.494454 0.546452 0  0.505246 0.522699 0  0.522783 0.509502 0  0.55246 0.494986 0  0.586185 0.484429 0  0.615863 0.48047 0  0.64554 0.473872 0  0.667124 0.461995 0  0.683312 0.451438 0  0.696802 0.435603 0  0.703547 0.417128 0  0.71164 0.393374 0  0.718385 0.37226 0  0.72513 0.364342 0  0.739969 0.353785 0  0.745365 0.344548 0  0.745365 0.327393 0  0.737271 0.318155 0  0.718385 0.316835 0  0.700849 0.319475 0  0.677916 0.318155 0  0.650936 0.316835 0  0.610467 0.318155 0  0.57944 0.324753 0  0.559205 0.328712 0  0.53897 0.326073 0  1 1 0  1 0 0  0 0 0  0 1 0  0.532238 0.32476 0  0.528748 0.323052 0  0.52421 0.320833 0  0.518311 0.317947 0  0.503447 0.310783 0  0.494093 0.306347 0  0.481933 0.30058 0  0.452151 0.28749 0  0.392327 0.273691 0  0.379141 0.271971 0  0.360474 0.283066 0  0.369797 0.291752 0  0.391424 0.31238 0  0.399335 0.32012 0  0.40958 0.341964 0  0.393939 0.36039 0  0.386028 0.36383 0  0.364248 0.374254 0  0.349304 0.381994 0  0.315801 0.409841 0  0.292986 0.551616 0  0.350934 0.657818 0  0.360127 0.737055 0  0.360566 0.748664 0  0.385245 0.753692 0  0.396447 0.732578 0  0.466301 0.703661 0  0.459439 0.672908 0  0.418442 0.666195 0  0.400553 0.642441 0  0.39255 0.612619 0  0.389913 0.60058 0  0.392752 0.568197 0  0.444131 0.573132 0  0.458149 0.606926 0  0.500554 0.533026 0  0.571522 0.489019 0  0.632637 0.476741 0  0.689177 0.444553 0  0.708121 0.403702 0  0.715453 0.38144 0  0.732406 0.359166 0  0.745365 0.337089 0  0.72906 0.317581 0  0.629879 0.317522 0  0.59293 0.321884 0  0.568003 0.326991 0  0.55202 0.327775 0  0.546493 0.327054 0  0.542241 0.326499 0  1 0.9 0  1 0.8 0  1 0.7 0  1 0.6 0  1 0.5 0  1 0.4 0  1 0.3 0  1 0.2 0  1 0.1 0  0.9 0 0  0.8 0 0  0.7 0 0  0.6 0 0  0.5 0 0  0.4 0 0  0.3 0 0  0.2 0 0  0.1 0 0  0.1 1 0  0.2 1 0  0.3 1 0  0.4 1 0  0.5 1 0  0.6 1 0  0.7 1 0  0.8 1 0  0.9 1 0  0 0.1 0  0 0.2 0  0 0.3 0  0 0.4 0  0 0.5 0  0 0.6 0  0 0.7 0  0 0.8 0  0 0.9 0  0.535686 0.503191 0  0.753987 0.733359 0  0.167145 0.741436 0  0.173378 0.257204 0  0.733497 0.159862 0  0.554096 0.15788 0  0.849187 0.479053 0  0.488793 0.838452 0  0.138507 0.5592 0  0.30686 0.154944 0  0.348904 0.890523 0  0.058006 0.065099 0  0.069849 0.937917 0  0.93633 0.939704 0  0.934625 0.053613 0  0.343397 0.333452 0  0.473272 0.639943 0  0.433266 0.638072 0  0.415174 0.58269 0  0.533435 0.545042 0  0.390848 0.340652 0  0.53655 0.320242 0  0.127966 0.393775 0  0.83861 0.850455 0  0.635242 0.85513 0  0.852158 0.633441 0  0.653427 0.626848 0  0.861226 0.24292 0  0.166128 0.12976 0  0.216875 0.869871 0  0.458305 0.11179 0  0.84446 0.101633 0  0.202024 0.642528 0  0.644825 0.115855 0  0.671342 0.218358 0  0.251354 0.286186 0  0.262388 0.75153 0  0.063044 0.751571 0  0.068189 0.242962 0  0.435781 0.905395 0  0.934144 0.451133 0  0.568393 0.237622 0  0.814984 0.395506 0  0.752951 0.517227 0  0.456254 0.780699 0  0.073352 0.531116 0  0.337731 0.206071 0  0.363213 0.960371 0  0.330742 0.363592 0  0.516613 0.55705 0  0.369057 0.332992 0  0.500926 0.617309 0  0.498004 0.665534 0  0.412142 0.61178 0  0.454233 0.636604 0  0.422782 0.567496 0  0.541193 0.52148 0  0.439761 0.65557 0  0.5163 0.533672 0  0.414775 0.64562 0  0.40073 0.576135 0  0.430362 0.588034 0  0.385432 0.351492 0  0.400298 0.335397 0  0.398325 0.348194 0  0.528702 0.314885 0  0.540814 0.322334 0  0.534477 0.322953 0  0.619095 0.743583 0  0.885162 0.737972 0  0.08076 0.668849 0  0.90734 0.36634 0  0.094687 0.868937 0  0.759838 0.912152 0  0.901518 0.540898 0  0.747285 0.607479 0  0.229182 0.071641 0  0.069154 0.450091 0  0.244775 0.203309 0  0.076534 0.331755 0  0.897847 0.167826 0  0.578909 0.911415 0  0.077133 0.146341 0  0.477215 0.203448 0  0.922631 0.869341 0  0.517415 0.074785 0  0.297026 0.827793 0  0.783271 0.246505 0  0.74519 0.061079 0  0.36033 0.069068 0  0.210313 0.475228 0  0.859426 0.928758 0  0.574548 0.609182 0  0.243069 0.383398 0  0.283099 0.934598 0  0.417416 0.843141 0  0.643942 0.553164 0  0.112687 0.079336 0  0.281357 0.658386 0  0.765043 0.436177 0  0.611361 0.198486 0  0.234496 0.58911 0  0.206479 0.702638 0  0.679608 0.155818 0  0.62682 0.259978 0  0.690538 0.264164 0  0.448938 0.956308 0  0.808154 0.328403 0  0.379583 0.91913 0  0.308083 0.297769 0  0.312358 0.730249 0  0.563101 0.278576 0  0.435597 0.746198 0  0.385475 0.225229 0  0.572248 0.518034 0  0.357864 0.35422 0  0.497647 0.641694 0  0.458101 0.655768 0  0.360474 0.310727 0  0.467038 0.620139 0  0.47798 0.659909 0  0.41102 0.628072 0  0.48324 0.609015 0  0.427544 0.617941 0  0.388633 0.328253 0  0.405336 0.599404 0  0.408351 0.565178 0  0.42395 0.600985 0  0.431562 0.576523 0  0.424905 0.655198 0  0.398064 0.58782 0  0.427739 0.557934 0  0.519291 0.303443 0  0.53142 0.320293 0  0.5449 0.323642 0  0.537166 0.323513 0  0.153974 0.920841 0  0.918186 0.67343 0  0.759946 0.820588 0  0.537526 0.783091 0  0.816532 0.545843 0  0.813991 0.178083 0  0.836774 0.702023 0  0.149815 0.318856 0  0.662287 0.923338 0  0.680146 0.791192 0  0.708961 0.663172 0  0.937278 0.287318 0  0.574622 0.688166 0  0.589474 0.076262 0  0.502822 0.926683 0  0.222269 0.811068 0  0.380457 0.164786 0  0.15321 0.684154 0  0.458063 0.051413 0  0.161702 0.056026 0  0.199351 0.198818 0  0.298946 0.095532 0  0.902465 0.795949 0  0.121139 0.791477 0  0.906269 0.112287 0  0.056109 0.822332 0  0.512172 0.13237 0  0.940964 0.741805 0  0.888887 0.408777 0  0.354543 0.825964 0  0.808736 0.068638 0  0.068507 0.394071 0  0.719105 0.563843 0  0.247287 0.149664 0  0.293062 0.237128 0  0.240524 0.434997 0  0.141255 0.623289 0  0.945202 0.160621 0  0.502914 0.247629 0  0.144669 0.480811 0  0.665025 0.060817 0  0.728047 0.224344 0  0.861995 0.313312 0  0.200068 0.534235 0  0.253262 0.965623 0  0.893804 0.49307 0  0.604391 0.572456 0  0.947088 0.345347 0  0.439372 0.227307 0  0.629847 0.159823 0  0.273405 0.880181 0  0.302744 0.776823 0  0.781502 0.295365 0  0.275342 0.349602 0  0.728385 0.472798 0  0.229136 0.246478 0  0.807794 0.480346 0  0.709476 0.112786 0  0.275506 0.694991 0  0.771674 0.394419 0  0.449715 0.861802 0  0.419159 0.799696 0  0.674851 0.503139 0  0.280443 0.61016 0  0.572443 0.192538 0  0.393113 0.87525 0  0.405555 0.948428 0  0.330942 0.934103 0  0.540509 0.597101 0  0.312763 0.668931 0  0.254368 0.540179 0  0.595265 0.25915 0  0.606679 0.234099 0  0.657131 0.279138 0  0.722458 0.279478 0  0.333 0.308056 0  0.351529 0.246142 0  0.455714 0.725794 0  0.585239 0.295143 0  0.340062 0.72492 0  0.545593 0.293773 0  0.555449 0.545426 0  0.414311 0.737314 0  0.590854 0.502323 0  0.350507 0.368444 0  0.484423 0.625665 0  0.483899 0.674542 0  0.378137 0.317274 0  0.446416 0.646404 0  0.373532 0.347654 0  0.446876 0.619769 0  0.466106 0.666068 0  0.437545 0.609254 0  0.434988 0.565726 0  0.41462 0.656829 0  0.418803 0.556961 0  0.398425 0.327446 0  0.517803 0.310421 0  0.549516 0.322918 0  0.57701 0.842889 0  0.829127 0.773906 0  0.643235 0.684732 0  0.134281 0.207734 0  0.865997 0.055966 0  0.680959 0.723345 0  0.165229 0.841555 0  0.54558 0.959672 0  0.783726 0.656439 0  0.913315 0.595533 0  0.699439 0.860667 0  0.785839 0.125076 0  0.551673 0.037713 0  0.920097 0.223214 0  0.206406 0.299726 0  0.087064 0.596401 0  0.935644 0.394252 0  0.964557 0.252582 0  0.230124 0.928346 0  0.120579 0.271764 0  0.857215 0.524082 0  0.767098 0.555147 0  0.936094 0.507131 0  0.804064 0.59585 0  0.700565 0.608273 0  0.429773 0.174231 0  0.117746 0.727333 0  0.538962 0.730231 0  0.862761 0.359173 0  0.821444 0.284046 0  0.193552 0.35818 0  0.234923 0.505555 0  0.193209 0.421217 0  0.220144 0.755896 0  0.594015 0.131642 0  0.283813 0.195855 0  0.517519 0.213961 0  0.553509 0.639116 0  0.280391 0.378018 0  0.852183 0.436817 0  0.746983 0.197173 0  0.821806 0.221318 0  0.449853 0.828453 0  0.883758 0.453926 0  0.183484 0.589542 0  0.348384 0.129314 0  0.255254 0.838525 0  0.504849 0.798516 0  0.320344 0.863432 0  0.611669 0.525425 0  0.265864 0.804962 0  0.72056 0.521442 0  0.613372 0.610122 0  0.481262 0.881068 0  0.655778 0.191988 0  0.701921 0.196918 0  0.565826 0.573181 0  0.46914 0.240927 0  0.343219 0.173284 0  0.888786 0.278502 0  0.244113 0.675093 0  0.739546 0.417914 0  0.784023 0.355942 0  0.326805 0.265549 0  0.248616 0.634948 0  0.789183 0.413964 0  0.764107 0.476606 0  0.32086 0.698956 0  0.334735 0.791464 0  0.53448 0.258468 0  0.395208 0.824575 0  0.309962 0.638947 0  0.263264 0.22712 0  0.756395 0.267254 0  0.639281 0.224663 0  0.358631 0.85116 0  0.309751 0.332089 0  0.663461 0.246436 0  0.424083 0.871774 0  0.269645 0.445719 0  0.272183 0.572741 0  0.624492 0.294638 0  0.717827 0.250266 0  0.408215 0.763744 0  0.485997 0.274924 0  0.288138 0.274311 0  0.410524 0.242487 0  0.741513 0.385737 0  0.691284 0.483519 0  0.515531 0.581849 0  0.463005 0.753402 0  0.681919 0.
[...]
<PointData  Vectors="u"> 
<DataArray  type="Float32"  Name="u"  NumberOfComponents="3" format="ascii">1.192013e-03 5.787159e-02 0.000000e+00  1.532124e-03 5.955082e-02 0.000000e+00  2.242210e-03 6.235988e-02 0.000000e+00  2.458439e-03 6.452148e-02 0.000000e+00  2.547713e-03 6.685349e-02 0.000000e+00  2.521647e-03 7.151739e-02 0.000000e+00  3.130410e-03 7.550485e-02 0.000000e+00  3.674808e-03 8.012112e-02 0.000000e+00  4.753437e-03 8.107541e-02 0.000000e+00  5.061495e-03 8.107797e-02 0.000000e+00  5.457074e-03 8.107438e-02 0.000000e+00  5.604560e-03 8.097139e-02 0.000000e+00  5.719440e-03 8.000474e-02 0.000000e+00  5.093701e-03 7.833390e-02 0.000000e+00  3.363743e-03 7.870013e-02 0.000000e+00  1.333070e-03 8.008940e-02 0.000000e+00  -9.321348e-04 8.202726e-02 0.000000e+00  -3.106660e-03 8.430845e-02 0.000000e+00  -4.421169e-03 8.605217e-02 0.000000e+00  -5.339846e-03 8.752684e-02 0.000000e+00  -5.969415e-03 8.874385e-02 0.000000e+00  -6.175927e-03 8.909860e-02 0.000000e+00  -6.357143e-03 8.946166e-02 0.000000e+00  -7.326194e-03 9.101757e-02 0.000000e+00  -8.198300e-03 9.260610e-02 0.000000e+00  -8.951164e-03 9.428780e-02 0.000000e+00  -9.573677e-03 9.613034e-02 0.000000e+00  -9.385190e-03 9.750181e-02 0.000000e+00  -8.943386e-03 9.908675e-02 0.000000e+00  -8.522868e-03 1.012581e-01 0.000000e+00  -7.757202e-03 1.099175e-01 0.000000e+00  -7.871882e-03 1.196945e-01 0.000000e+00  -7.836158e-03 1.293071e-01 0.000000e+00  -8.551765e-03 1.395168e-01 0.000000e+00  -9.446006e-03 1.449716e-01 0.000000e+00  -1.057233e-02 1.480957e-01 0.000000e+00  -1.161543e-02 1.494323e-01 0.000000e+00  -1.454879e-02 1.526558e-01 0.000000e+00  -1.884023e-02 1.560370e-01 0.000000e+00  -1.963721e-02 1.564778e-01 0.000000e+00  -2.005867e-02 1.568915e-01 0.000000e+00  -1.999984e-02 1.571897e-01 0.000000e+00  -1.990132e-02 1.573915e-01 0.000000e+00  -1.962943e-02 1.573753e-01 0.000000e+00  -1.882636e-02 1.570859e-01 0.000000e+00  -1.692650e-02 1.566177e-01 0.000000e+00  -1.289638e-02 1.546034e-01 0.000000e+00  -5.295013e-03 1.486859e-01 0.000000e+00  4.204134e-03 1.419306e-01 0.000000e+00  1.176248e-02 1.379847e-01 0.000000e+00  1.880651e-02 1.340226e-01 0.000000e+00  2.305695e-02 1.304690e-01 0.000000e+00  2.377855e-02 1.271120e-01 0.000000e+00  2.292055e-02 1.228462e-01 0.000000e+00  2.093233e-02 1.128346e-01 0.000000e+00  1.880686e-02 9.972302e-02 0.000000e+00  1.763315e-02 8.718580e-02 0.000000e+00  1.616331e-02 7.337231e-02 0.000000e+00  1.435497e-02 6.307272e-02 0.000000e+00  1.287125e-02 5.556526e-02 0.000000e+00  1.110863e-02 4.851136e-02 0.000000e+00  9.561302e-03 4.391562e-02 0.000000e+00  7.653489e-03 3.993701e-02 0.000000e+00  6.145477e-03 3.757929e-02 0.000000e+00  5.504223e-03 3.658528e-02 0.000000e+00  4.309358e-03 3.402433e-02 0.000000e+00  3.415870e-03 3.245438e-02 0.000000e+00  2.019805e-03 3.153344e-02 0.000000e+00  1.190883e-03 3.238757e-02 0.000000e+00  7.071491e-04 3.480467e-02 0.000000e+00  5.892616e-04 3.690877e-02 0.000000e+00  3.585058e-04 3.963060e-02 0.000000e+00  1.154152e-04 4.316581e-02 0.000000e+00  5.036740e-05 4.890257e-02 0.000000e+00  4.940549e-04 5.332650e-02 0.000000e+00  8.886139e-04 5.570407e-02 0.000000e+00  1.140841e-03 5.757708e-02 0.000000e+00  0.000000e+00 0.000000e+00 0.000000e+00  0.000000e+00 0.000000e+00 0.000000e+00  7.551889e-03 7.766921e-02 0.000000e+00  -3.350693e-03 8.740194e-02 0.000000e+00  1.204393e-03 5.804339e-02 0.000000e+00  1.239154e-03 5.829081e-02 0.000000e+00  1.299992e-03 5.861528e-02 0.000000e+00  1.394434e-03 5.902950e-02 0.000000e+00  1.665938e-03 6.002058e-02 0.000000e+00  1.834987e-03 6.060792e-02 0.000000e+00  2.033286e-03 6.135414e-02 0.000000e+00  2.368835e-03 6.331247e-02 0.000000e+00  2.561226e-03 6.852956e-02 0.000000e+00  2.543525e-03 7.002065e-02 0.000000e+00  3.004953e-03 7.793678e-02 0.000000e+00  3.263465e-03 7.915563e-02 0.000000e+00  4.126582e-03 8.070903e-02 0.000000e+00  4.496273e-03 8.098535e-02 0.000000e+00  5.251067e-03 8.107815e-02 0.000000e+00  5.648426e-03 8.080600e-02 0.000000e+00  5.695466e-03 8.049159e-02 0.000000e+00  5.682433e-03 7.945114e-02 0.000000e+00  5.524090e-03 7.883235e-02 0.000000e+00  4.409037e-03 7.829361e-02 0.000000e+00  -2.210063e-03 8.329422e-02 0.000000e+00  -5.743815e-03 8.830155e-02 0.000000e+00  -6.684217e-03 8.995468e-02 0.000000e+00  -6.999306e-03 9.041786e-02 0.000000e+00  -9.420980e-03 9.529065e-02 0.000000e+00  -9.547454e-03 9.676490e-02 0.000000e+00  -8.286137e-03 1.040594e-01 0.000000e+00  -7.949122e-03 1.344280e-01 0.000000e+00  -1.009884e-02 1.469727e-01 0.000000e+00  -1.276967e-02 1.507566e-01 0.000000e+00  -1.657732e-02 1.544452e-01 0.000000e+00  -1.801302e-02 1.555153e-01 0.000000e+00  -1.990792e-02 1.566767e-01 0.000000e+00  -1.823017e-02 1.569883e-01 0.000000e+00  -8.243518e-04 1.458433e-01 0.000000e+00  2.380961e-02 1.285098e-01 0.000000e+00  1.971830e-02 1.055543e-01 0.000000e+00  1.682210e-02 7.952877e-02 0.000000e+00  1.215151e-02 5.238216e-02 0.000000e+00  8.466936e-03 4.150425e-02 0.000000e+00  6.765648e-03 3.843975e-02 0.000000e+00  4.960330e-03 3.548492e-02 0.000000e+00  2.825313e-03 3.181980e-02 0.000000e+00  9.216071e-04 3.344252e-02 0.000000e+00  4.142318e-05 4.608249e-02 0.000000e+00  2.603330e-04 5.148804e-02 0.000000e+00  7.199990e-04 5.475952e-02 0.000000e+00  9.624420e-04 5.637909e-02 0.000000e+00  1.033425e-03 5.690572e-02 0.000000e+00  1.092494e-03 5.729217e-02 0.000000e+00  0.000000e+00 0.000000e+00 0.000000e+00  0.000000e+00 0.000000e+00 0.000000e+00  0.000000e+00 0.000000e+00 0.000000e+00  0.000000e+00 0.000000e+00 0.000000e+00  0.000000e+00 0.000000e+00 0.000000e+00  0.000000e+00 0.000000e+00 0.000000e+00  0.000000e+00 0.000000e+00 0.000000e+00  0.000000e+00 0.000000e+00 0.000000e+00  0.000000e+00 0.000000e+00 0.000000e+00  1.398847e-04 1.241467e-02 0.000000e+00  4.151575e-04 2.467459e-02 0.000000e+00  8.786654e-04 3.642629e-02 0.000000e+00  1.582793e-03 4.729524e-02 0.000000e+00  2.521934e-03 5.689048e-02 0.000000e+00  3.668053e-03 6.492605e-02 0.000000e+00  5.005870e-03 7.102549e-02 0.000000e+00  6.273522e-03 7.491452e-02 0.000000e+00  7.165671e-03 7.694535e-02 0.000000e+00  -3.712518e-03 8.817002e-02 0.000000e+00  -4.316807e-03 8.983439e-02 0.000000e+00  -4.709328e-03 9.191558e-02 0.000000e+00  -4.189399e-03 9.316118e-02 0.000000e+00  -2.363254e-03 9.089495e-02 0.000000e+00  -5.982797e-05 8.256195e-02 0.000000e+00  1.357533e-03 6.797996e-02 0.000000e+00  1.428044e-03 4.879685e-02 0.000000e+00  6.827079e-04 2.632950e-02 0.000000e+00  8.143345e-03 7.800328e-02 0.000000e+00  8.913389e-03 7.861209e-02 0.000000e+00  9.013900e-03 7.935958e-02 0.000000e+00  7.963925e-03 8.029656e-02 0.000000e+00  5.848812e-03 8.153699e-02 0.000000e+00  3.231677e-03 8.305813e-02 0.000000e+00  7.403020e-04 8.464001e-02 0.000000e+00  -1.268755e-03 8.601005e-02 0.000000e+00  -2.675428e-03 8.697668e-02 0.000000e+00  2.214304e-02 1.188695e-01 0.000000e+00  7.122709e-03 5.499446e-02 0.000000e+00  -2.744352e-03 8.626191e-02 0.000000e+00  7.755022e-03 7.831251e-02 0.000000e+00  3.841034e-04 3.328748e-02 0.000000e+00  1.653792e-03 5.343335e-02 0.000000e+00  2.104015e-03 2.294437e-02 0.000000e+00  -3.579788e-03 9.665100e-02 0.000000e+00  1.952995e-03 8.232079e-02 0.000000e+00  5.014031e-03 7.322773e-02 0.000000e+00  -5.670360e-03 9.307762e-02 0.000000e+00  7.601380e-03 7.769786e-02 0.000000e+00  -3.417892e-03 8.750328e-02 0.000000e+00  3.473490e-04 1.683525e-02 0.000000e+00  5.669872e-05 8.193353e-03 0.000000e+00  5.363601e-03 7.861677e-02 0.000000e+00  -3.113081e-03 1.332506e-01 0.000000e+00  -9.015856e-03 1.465557e-01 0.000000e+00  -1.830612e-02 1.564516e-01 0.000000e+00  2.031386e-02 1.222163e-01 0.000000e+00  5.222014e-03 8.068100e-02 0.000000e+00  1.217345e-03 5.769217e-02 0.000000e+00  6.734671e-03 7.981685e-02 0.000000e+00  2.258436e-03 3.868537e-02 0.000000e+00  2.928157e-03 8.090329e-02 0.000000e+00  4.025898e-03 2.799870e-02 0.000000e+00  1.402068e-02 7.885289e-02 0.000000e+00  -1.397470e-04 1.774378e-02 0.000000e+00  7.167537e-03 7.709343e-02 0.000000e+00  -4.536764e-03 8.911323e-02 0.000000e+00  2.779388e-03 6.168321e-02 0.000000e+00  1.572693e-04 1.953431e-02 0.000000e+00  -1.749001e-03 8.464245e-02 0.000000e+00  9.792100e-04 4.339039e-02 0.000000e+00  4.194663e-04 4.085918e-02 0.000000e+00  6.931614e-03 7.773066e-02 0.000000e+00  -4.634316e-03 8.816505e-02 0.000000e+00  -1.247012e-03 8.552393e-02 0.000000e+00  8.577248e-03 7.883150e-02 0.000000e+00  -4.505420e-03 9.468587e-02 0.000000e+00  2.943846e-05 8.076328e-03 0.000000e+00  1.143657e-03 5.303375e-02 0.000000e+00  1.389860e-03 2.631277e-02 0.000000e+00  7.511749e-03 4.334458e-02 0.000000e+00  -6.410349e-03 9.934142e-02 0.000000e+00  3.936341e-03 8.189614e-02 0.000000e+00  4.211492e-03 7.275955e-02 0.000000e+00  -4.717465e-03 9.320235e-02 0.000000e+00  5.544348e-03 7.853235e-02 0.000000e+00  1.957427e-02 1.275449e-01 0.000000e+00  5.045265e-03 7.969269e-02 0.000000e+00  5.115375e-03 1.290363e-01 0.000000e+00  -5.444318e-04 1.207702e-01 0.000000e+00  -1.450968e-02 1.538031e-01 0.000000e+00  -5.787476e-03 1.403403e-01 0.000000e+00  -1.931623e-02 1.570291e-01 0.000000e+00  2.139645e-02 1.184021e-01 0.000000e+00  -8.692478e-03 1.428806e-01 0.000000e+00  2.242127e-02 1.260409e-01 0.000000e+00  -1.104616e-02 1.491027e-01 0.000000e+00  -1.939239e-02 1.566200e-01 0.000000e+00  -1.661287e-02 1.560770e-01 0.000000e+00  5.507922e-03 8.047110e-02 0.000000e+00  5.051791e-03 8.096153e-02 0.000000e+00  5.428497e-03 8.091911e-02 0.000000e+00  1.368691e-03 5.823777e-02 0.000000e+00  1.138745e-03 5.736294e-02 0.000000e+00  1.217016e-03 5.788140e-02 0.000000e+00  7.534146e-03 8.742035e-02 0.000000e+00  2.207346e-03 2.503578e-02 0.000000e+00  1.618270e-04 8.427891e-02 0.000000e+00  -3.066586e-04 1.200397e-02 0.000000e+00  -3.171720e-03 8.717984e-02 0.000000e+00  2.314301e-03 5.674824e-02 0.000000e+00  1.928002e-03 1.504970e-02 0.000000e+00  9.568184e-03 5.061912e-02 0.000000e+00  6.075609e-03 7.490135e-02 0.000000e+00  6.147320e-03 8.074428e-02 0.000000e+00  6.598495e-03 7.654407e-02 0.000000e+00  8.148033e-03 7.949535e-02 0.000000e+00  -4.034495e-05 1.291980e-02 0.000000e+00  1.917816e-05 8.711242e-02 0.000000e+00  8.044861e-03 7.810670e-02 0.000000e+00  2.424638e-03 6.093295e-02 0.000000e+00  6.060566e-04 1.941869e-02 0.000000e+00  2.253515e-03 5.607837e-02 0.000000e+00  -5.767544e-03 9.060034e-02 0.000000e+00  2.941516e-04 2.758417e-02 0.000000e+00  5.741665e-04 3.148442e-02 0.000000e+00  4.125470e-03 6.855202e-02 0.000000e+00  3.264065e-03 8.047166e-02 0.000000e+00  1.208832e-03 3.514717e-02 0.000000e+00  1.422168e-02 1.064857e-01 0.000000e+00  5.745762e-03 7.883738e-02 0.000000e+00  -4.940494e-03 9.136380e-02 0.000000e+00  -6.110371e-03 9.573779e-02 0.000000e+00  1.600924e-02 7.926186e-02 0.000000e+00  7.333069e-03 7.735071e-02 0.000000e+00  -4.101311e-03 8.657901e-02 0.000000e+00  4.218458e-03 3.594399e-02 0.000000e+00  8.500491e-04 4.779812e-02 0.000000e+00  -1.335811e-03 8.359765e-02 0.000000e+00  -2.931921e-03 8.609083e-02 0.000000e+00  6.121481e-04 3.965152e-02 0.000000e+00  3.254642e-04 4.641686e-02 0.000000e+00  3.765361e-04 3.850550e-02 0.000000e+00  -3.626926e-03 9.351985e-02 0.000000e+00  7.022170e-04 2.554148e-02 0.000000e+00  -5.107688e-03 9.378809e-02 0.000000e+00  5.969114e-03 7.729066e-02 0.000000e+00  -5.402189e-03 8.893321e-02 0.000000e+00  9.966615e-04 5.432983e-02 0.000000e+00  -8.254337e-03 9.917500e-02 0.000000e+00  2.905288e-03 6.906492e-02 0.000000e+00  1.964126e-02 1.069687e-01 0.000000e+00  5.528509e-03 7.928833e-02 0.000000e+00  1.192012e-03 1.256132e-01 0.000000e+00  -7.016017e-03 1.364071e-01 0.000000e+00  4.383074e-03 7.888541e-02 0.000000e+00  -1.415634e-03 1.388515e-01 0.000000e+00  -4.368854e-03 1.280140e-01 0.000000e+00  -1.274824e-02 1.516468e-01 0.000000e+00  4.231684e-03 1.355237e-01 0.000000e+00  -1.107389e-02 1.513945e-01 0.000000e+00  4.796282e-03 8.058673e-02 0.000000e+00  -1.695264e-02 1.553529e-01 0.000000e+00  -1.975010e-02 1.569548e-01 0.000000e+00  -1.468396e-02 1.548045e-01 0.000000e+00  -1.824667e-02 1.567509e-01 0.000000e+00  -9.839430e-03 1.465791e-01 0.000000e+00  -1.865708e-02 1.561669e-01 0.000000e+00  -1.965376e-02 1.572674e-01 0.000000e+00  1.633094e-03 5.881619e-02 0.000000e+00  1.271063e-03 5.808297e-02 0.000000e+00  1.073473e-03 5.701037e-02 0.000000e+00  1.181149e-03 5.768785e-02 0.000000e+00  -3.972999e-03 8.842943e-02 0.000000e+00  1.418103e-03 1.590702e-02 0.000000e+00  4.395499e-03 5.578461e-02 0.000000e+00  1.897071e-04 9.823562e-02 0.000000e+00  4.797703e-03 3.140701e-02 0.000000e+00  9.752139e-05 2.352344e-02 0.000000e+00  4.365363e-03 3.441546e-02 0.000000e+00  7.679360e-03 7.900645e-02 0.000000e+00  1.714118e-03 7.512504e-02 0.000000e+00  6.137031e-03 7.316432e-02 0.000000e+00  1.089151e-02 6.375656e-02 0.000000e+00  -3.295779e-04 7.632778e-03 0.000000e+00  8.617736e-03 1.007446e-01 0.000000e+00  1.559220e-03 4.903092e-02 0.000000e+00  -2.472821e-03 9.262699e-02 0.000000e+00  -4.405550e-03 8.837500e-02 0.000000e+00  3.485307e-03 6.861026e-02 0.000000e+00  -1.512729e-03 8.501943e-02 0.000000e+00  2.926481e-03 6.104402e-02 0.000000e+00  6.792095e-03 7.641481e-02 0.000000e+00  7.247052e-03 7.736799e-02 0.000000e+00  5.081186e-03 7.248568e-02 0.000000e+00  1.322783e-03 2.278704e-02 0.000000e+00  -2.686824e-03 8.651649e-02 0.000000e+00  3.816421e-05 1.181960e-02 0.000000e+00  -2.260885e-03 8.640624e-02 0.000000e+00  2.174796e-03 5.715341e-02 0.000000e+00  6.608196e-04 1.290635e-02 0.000000e+00  2.082271e-04 1.508532e-02 0.000000e+00  -6.783153e-03 9.293842e-02 0.000000e+00  3.161500e-04 2.384871e-02 0.000000e+00  7.342020e-03 8.010471e-02 0.000000e+00  1.105555e-02 5.522407e-02 0.000000e+00  6.182551e-03 7.551705e-02 0.000000e+00  5.824772e-03 7.598497e-02 0.000000e+00  4.177292e-03 7.953939e-02 0.000000e+00  1.070927e-04 8.366885e-02 0.000000e+00  -2.206919e-05 6.920902e-03 0.000000e+00  2.164520e-03 5.928513e-02 0.000000e+00  4.250881e-03 8.086040e-02 0.000000e+00  1.015767e-03 4.075307e-02 0.000000e+00  3.600519e-04 3.409727e-02 0.000000e+00  -1.708063e-04 1.809854e-02 0.000000e+00  1.379210e-03 8.182222e-02 0.000000e+00  -4.645955e-03 9.078928e-02 0.000000e+00  1.443822e-03 1.554500e-02 0.000000e+00  1.702569e-02 9.561207e-02 0.000000e+00  -5.617690e-04 6.101347e-03 0.000000e+00  2.628353e-03 6.419307e-02 0.000000e+00  9.005790e-04 4.539233e-02 0.000000e+00  -5.208211e-03 9.065599e-02 0.000000e+00  -5.703939e-03 8.967836e-02 0.000000e+00  7.394868e-04 2.816030e-02 0.000000e+00  6.138980e-03 7.825263e-02 0.000000e+00  7.847490e-03 4.565453e-02 0.000000e+00  7.127845e-03 7.752237e-02 0.000000e+00  3.466122e-03 3.033400e-02 0.000000e+00  6.099165e-04 3.594471e-02 0.000000e+00  -4.342097e-03 8.732039e-02 0.000000e+00  3.067263e-03 3.266810e-02 0.000000e+00  -4.868168e-03 9.589068e-02 0.000000e+00  -7.142477e-03 9.673669e-02 0.000000e+00  1.356904e-02 6.413073e-02 0.000000e+00  -3.320926e-03 8.514189e-02 0.000000e+00  1.308385e-03 5.197850e-02 0.000000e+00  -5.772308e-03 9.450878e-02 0.000000e+00  -4.434114e-03 9.382371e-02 0.000000e+00  -5.081497e-03 9.259979e-02 0.000000e+00  1.324917e-02 1.192690e-01 0.000000e+00  -4.984152e-03 8.764652e-02 0.000000e+00  -3.916726e-04 8.227620e-02 0.000000e+00  6.037301e-04 5.031079e-02 0.000000e+00  6.648563e-04 4.867606e-02 0.000000e+00  2.203163e-04 4.256150e-02 0.000000e+00  5.823029e-04 3.466905e-02 0.000000e+00  5.270911e-03 7.767504e-02 0.000000e+00  3.495284e-03 7.315368e-02 0.000000e+00  -8.185206e-03 1.018549e-01 0.000000e+00  4.789379e-04 5.206628e-02 0.000000e+00  -5.929695e-03 8.940956e-02 0.000000e+00  1.263142e-03 5.642167e-02 0.000000e+00  1.940087e-02 1.146539e-01 0.000000e+00  -8.953248e-03 9.771176e-02 0.000000e+00  1.872000e-02 9.872757e-02 0.000000e+00  5.576035e-03 7.899037e-02 0.000000e+00  8.103217e-04 1.323157e-01 0.000000e+00  -4.403252e-03 1.226748e-01 0.000000e+00  4.385766e-03 8.004116e-02 0.000000e+00  -7.616635e-03 1.416578e-01 0.000000e+00  5.418520e-03 7.995204e-02 0.000000e+00  -6.062859e-03 1.462376e-01 0.000000e+00  -7.008270e-03 1.318717e-01 0.000000e+00  -1.007379e-02 1.519329e-01 0.000000e+00  -1.910217e-02 1.571126e-01 0.000000e+00  -1.058468e-02 1.481345e-01 0.000000e+00  -1.983119e-02 1.572113e-01 0.000000e+00  4.773396e-03 8.092738e-02 0.000000e+00  1.547682e-03 5.900651e-02 0.000000e+00  1.016232e-03 5.656337e-02 0.000000e+00  1.196831e-03 8.997547e-02 0.000000e+00  3.667007e-03 3.886365e-02 0.000000e+00  1.144310e-02 8.254412e-02 0.000000e+00  7.965507e-03 7.822045e-02 0.000000e+00  1.788766e-04 1.675557e-02 0.000000e+00  9.297904e-03 7.275132e-02 0.000000e+00  -3.766554e-03 8.777329e-02 0.000000e+00  -1.246115e-03 8.891807e-02 0.000000e+00  7.328653e-03 4.444951e-02 0.000000e+00  1.682375e-03 1.437758e-02 0.000000e+00  3.615805e-03 6.892494e-02 0.000000e+00  2.752131e-04 2.683190e-02 0.000000e+00  1.983552e-03 5.246559e-02 0.000000e+00  -1.479287e-04 1.004895e-02 0.000000e+00  7.358068e-03 7.837286e-02 0.000000e+00  1.876033e-03 8.300229e-02 0.000000e+00  7.281697e-05 7.675410e-03 0.000000e+00  -8.920933e-05 4.302589e-03 0.000000e+00  -4.609983e-03 9.001157e-02 0.000000e+00  8.171325e-03 7.882572e-02 0.000000e+00  2.844378e-03 2.275228e-02 0.000000e+00  7.657340e-03 4.252334e-02 0.000000e+00  1.232977e-03 8.337694e-03 0.000000e+00  6.200724e-03 3.653005e-02 0.000000e+00  1.237576e-02 6.342015e-02 0.000000e+00  2.852015e-03 6.468414e-02 0.000000e+00  -1.665517e-03 8.549194e-02 0.000000e+00  2.503632e-03 1.035964e-01 0.000000e+00  2.794520e-05 1.851674e-02 0.000000e+00  1.742017e-04 2.318870e-02 0.000000e+00  6.782914e-03 7.900345e-02 0.000000e+00  1.531107e-03 8.112248e-02 0.000000e+00  5.312637e-03 7.969718e-02 0.000000e+00  -3.884364e-03 8.737326e-02 0.000000e+00  1.334581e-03 4.906001e-02 0.000000e+00  5.723064e-03 7.522029e-02 0.000000e+00  1.987547e-03 5.759718e-02 0.000000e+00  9.983003e-03 1.109315e-01 0.000000e+00  5.508234e-03 7.848939e-02 0.000000e+00  1.158291e-03 2.143711e-02 0.000000e+00  3.014212e-04 3.178037e-02 0.000000e+00  4.335134e-05 2.270245e-02 0.000000e+00  -5.515822e-03 9.704625e-02 0.000000e+00  8.513983e-04 1.654854e-02 0.000000e+00  4.809182e-05 8.313467e-02 0.000000e+00  4.192387e-03 7.028521e-02 0.000000e+00  -5.046375e-03 8.958353e-02 0.000000e+00  -2.788936e-03 9.883578e-02 0.000000e+00  -5.873397e-03 9.194273e-02 0.000000e+00  1.779509e-02 9.101906e-02 0.000000e+00  -5.132623e-03 8.927059e-02 0.000000e+00  1.001868e-02 5.164472e-02 0.000000e+00  1.522226e-02 9.238088e-02 0.000000e+00  -3.498103e-03 9.494480e-02 0.000000e+00  5.805363e-04 4.261461e-02 0.000000e+00  4.085982e-04 3.716697e-02 0.000000e+00  1.706160e-02 1.109942e-01 0.000000e+00  2.490152e-03 6.186411e-02 0.000000e+00  4.167783e-03 7.151426e-02 0.000000e+00  -3.129250e-04 1.420057e-02 0.000000e+00  -3.376312e-03 8.615728e-02 0.000000e+00  5.516936e-03 3.895463e-02 0.000000e+00  1.774315e-03 2.928809e-02 0.000000e+00  5.016017e-03 7.590320e-02 0.000000e+00  -2.837613e-03 8.519159e-02 0.000000e+00  2.600074e-03 3.092184e-02 0.000000e+00  5.441882e-03 3.840712e-02 0.000000e+00  -5.345672e-03 8.849797e-02 0.000000e+00  -6.661012e-03 9.117343e-02 0.000000e+00  1.646032e-03 5.676905e-02 0.000000e+00  -6.888883e-03 9.509048e-02 0.000000e+00  -4.650557e-03 8.681705e-02 0.000000e+00  6.436008e-03 7.655272e-02 0.000000e+00  5.458673e-04 3.081995e-02 0.000000e+00  4.928207e-04 4.472581e-02 0.000000e+00  -6.366570e-03 9.332886e-02 0.000000e+00  5.914433e-03 7.800044e-02 0.000000e+00  3.342888e-04 4.183863e-02 0.000000e+00  -5.355375e-03 9.530638e-02 0.000000e+00  3.224889e-03 7.944069e-02 0.000000e+00  -2.090526e-03 8.366863e-02 0.000000e+00  1.051834e-04 4.683529e-02 0.000000e+00  4.214480e-04 3.530276e-02 0.000000e+00  -8.354222e-03 9.669612e-02 0.000000e+00  2.296629e-03 6.087773e-02 0.000000e+00  6.303987e-03 7.701713e-02 0.000000e+00  2.642261e-03 6.673742e-02 0.000000e+00  4.811500e-03 3.623745e-02 0.000000e+00  1.174137e-02 5.669452e-02 0.000000e+00  1.453802e-02 1.282421e-01 0.000000e+00  -6.897353e-03 1.013160e-01 0.000000e+00  3.579581e-04 3.