<?xml version="1.0"?>
<VTKFile type="UnstructuredGrid"  version="0.1"  >
<UnstructuredGrid>
<Piece  NumberOfPoints="2868" NumberOfCells="5400">
<Points>
<DataArray  type="Float32"  NumberOfComponents="3"  format="ascii">0.534923 0.326073 0  0.510642 0.314196 0  0.466125 0.293082 0  0.436448 0.281205 0  0.409468 0.275927 0  0.368998 0.270648 0  0.35281 0.275927 0  0.381139 0.302319 0  0.405421 0.326073 0  0.410817 0.33531 0  0.408119 0.349826 0  0.400025 0.357744 0  0.375743 0.368301 0  0.329878 0.392055 0  0.297502 0.432963 0  0.282663 0.476511 0  0.285361 0.524018 0  0.298851 0.572845 0  0.317737 0.604516 0  0.337972 0.636187 0  0.360904 0.674457 0  0.368998 0.69953 0  0.359555 0.721964 0  0.360904 0.757594 0  0.370347 0.766831 0  0.381139 0.762872 0  0.390582 0.741758 0  0.404072 0.720644 0  0.424307 0.707448 0  0.447239 0.702169 0  0.480964 0.704808 0  0.479615 0.688973 0  0.468823 0.675776 0  0.447239 0.669178 0  0.428354 0.669178 0  0.410817 0.6639 0  0.404072 0.653343 0  0.395978 0.628269 0  0.387884 0.59132 0  0.389233 0.576804 0  0.397327 0.557009 0  0.410817 0.547772 0  0.424307 0.546452 0  0.437797 0.55305 0  0.44589 0.566247 0  0.441843 0.582082 0  0.439145 0.597918 0  0.449937 0.609795 0  0.468823 0.603196 0  0.479615 0.59 0  0.489058 0.570205 0  0.494454 0.546452 0  0.505246 0.522699 0  0.522783 0.509502 0  0.55246 0.494986 0  0.586185 0.484429 0  0.615863 0.48047 0  0.64554 0.473872 0  0.667124 0.461995 0  0.683312 0.451438 0  0.696802 0.435603 0  0.703547 0.417128 0  0.71164 0.393374 0  0.718385 0.37226 0  0.72513 0.364342 0  0.739969 0.353785 0  0.745365 0.344548 0  0.745365 0.327393 0  0.737271 0.318155 0  0.718385 0.316835 0  0.700849 0.319475 0  0.677916 0.318155 0  0.650936 0.316835 0  0.610467 0.318155 0  0.57944 0.324753 0  0.559205 0.328712 0  0.53897 0.326073 0  1 1 0  1 0 0  0 0 0  0 1 0  0.532238 0.32476 0  0.528748 0.323052 0  0.52421 0.320833 0  0.518311 0.317947 0  0.503447 0.310783 0  0.494093 0.306347 0  0.481933 0.30058 0  0.452151 0.28749 0  0.392327 0.273691 0  0.379141 0.271971 0  0.360474 0.283066 0  0.369797 0.291752 0  0.391424 0.31238 0  0.399335 0.32012 0  0.40958 0.341964 0  0.393939 0.36039 0  0.386028 0.36383 0  0.364248 0.374254 0  0.349304 0.381994 0  0.315801 0.409841 0  0.292986 0.551616 0  0.350934 0.657818 0  0.360127 0.737055 0  0.360566 0.748664 0  0.385245 0.753692 0  0.396447 0.732578 0  0.466301 0.703661 0  0.459439 0.672908 0  0.418442 0.666195 0  0.400553 0.642441 0  0.39255 0.612619 0  0.389913 0.60058 0  0.392752 0.568197 0  0.444131 0.573132 0  0.458149 0.606926 0  0.500554 0.533026 0  0.571522 0.489019 0  0.632637 0.476741 0  0.689177 0.444553 0  0.708121 0.403702 0  0.715453 0.38144 0  0.732406 0.359166 0  0.745365 0.337089 0  0.72906 0.317581 0  0.629879 0.317522 0  0.59293 0.321884 0  0.568003 0.326991 0  0.55202 0.327775 0  0.546493 0.327054 0  0.542241 0.326499 0  1 0.9 0  1 0.8 0  1 0.7 0  1 0.6 0  1 0.5 0  1 0.4 0  1 0.3 0  1 0.2 0  1 0.1 0  0.9 0 0  0.8 0 0  0.7 0 0  0.6 0 0  0.5 0 0  0.4 0 0  0.3 0 0  0.2 0 0  0.1 0 0  0.1 1 0  0.2 1 0  0.3 1 0  0.4 1 0  0.5 1 0  0.6 1 0  0.7 1 0  0.8 1 0  0.9 1 0  0 0.1 0  0 0.2 0  0 0.3 0  0 0.4 0  0 0.5 0  0 0.6 0  0 0.7 0  0 0.8 0  0 0.9 0  0.535686 0.503191 0  0.753987 0.733359 0  0.167145 0.741436 0  0.173378 0.257204 0  0.733497 0.159862 0  0.554096 0.15788 0  0.849187 0.479053 0  0.488793 0.838452 0  0.138507 0.5592 0  0.30686 0.154944 0  0.348904 0.890523 0  0.058006 0.065099 0  0.069849 0.937917 0  0.93633 0.939704 0  0.934625 0.053613 0  0.343397 0.333452 0  0.473272 0.639943 0  0.433266 0.638072 0  0.415174 0.58269 0  0.533435 0.545042 0  0.390848 0.340652 0  0.53655 0.320242 0  0.127966 0.393775 0  0.83861 0.850455 0  0.635242 0.85513 0  0.852158 0.633441 0  0.653427 0.626848 0  0.861226 0.24292 0  0.166128 0.12976 0  0.216875 0.869871 0  0.458305 0.11179 0  0.84446 0.101633 0  0.202024 0.642528 0  0.644825 0.115855 0  0.671342 0.218358 0  0.251354 0.286186 0  0.262388 0.75153 0  0.063044 0.751571 0  0.068189 0.242962 0  0.435781 0.905395 0  0.934144 0.451133 0  0.568393 0.237622 0  0.814984 0.395506 0  0.752951 0.517227 0  0.456254 0.780699 0  0.073352 0.531116 0  0.337731 0.206071 0  0.363213 0.960371 0  0.330742 0.363592 0  0.516613 0.55705 0  0.369057 0.332992 0  0.500926 0.617309 0  0.498004 0.665534 0  0.412142 0.61178 0  0.454233 0.636604 0  0.422782 0.567496 0  0.541193 0.52148 0  0.439761 0.65557 0  0.5163 0.533672 0  0.414775 0.64562 0  0.40073 0.576135 0  0.430362 0.588034 0  0.385432 0.351492 0  0.400298 0.335397 0  0.398325 0.348194 0  0.528702 0.314885 0  0.540814 0.322334 0  0.534477 0.322953 0  0.619095 0.743583 0  0.885162 0.737972 0  0.08076 0.668849 0  0.90734 0.36634 0  0.094687 0.868937 0  0.759838 0.912152 0  0.901518 0.540898 0  0.747285 0.607479 0  0.229182 0.071641 0  0.069154 0.450091 0  0.244775 0.203309 0  0.076534 0.331755 0  0.897847 0.167826 0  0.578909 0.911415 0  0.077133 0.146341 0  0.477215 0.203448 0  0.922631 0.869341 0  0.517415 0.074785 0  0.297026 0.827793 0  0.783271 0.246505 0  0.74519 0.061079 0  0.36033 0.069068 0  0.210313 0.475228 0  0.859426 0.928758 0  0.574548 0.609182 0  0.243069 0.383398 0  0.283099 0.934598 0  0.417416 0.843141 0  0.643942 0.553164 0  0.112687 0.079336 0  0.281357 0.658386 0  0.765043 0.436177 0  0.611361 0.198486 0  0.234496 0.58911 0  0.206479 0.702638 0  0.679608 0.155818 0  0.62682 0.259978 0  0.690538 0.264164 0  0.448938 0.956308 0  0.808154 0.328403 0  0.379583 0.91913 0  0.308083 0.297769 0  0.312358 0.730249 0  0.563101 0.278576 0  0.435597 0.746198 0  0.385475 0.225229 0  0.572248 0.518034 0  0.357864 0.35422 0  0.497647 0.641694 0  0.458101 0.655768 0  0.360474 0.310727 0  0.467038 0.620139 0  0.47798 0.659909 0  0.41102 0.628072 0  0.48324 0.609015 0  0.427544 0.617941 0  0.388633 0.328253 0  0.405336 0.599404 0  0.408351 0.565178 0  0.42395 0.600985 0  0.431562 0.576523 0  0.424905 0.655198 0  0.398064 0.58782 0  0.427739 0.557934 0  0.519291 0.303443 0  0.53142 0.320293 0  0.5449 0.323642 0  0.537166 0.323513 0  0.153974 0.920841 0  0.918186 0.67343 0  0.759946 0.820588 0  0.537526 0.783091 0  0.816532 0.545843 0  0.813991 0.178083 0  0.836774 0.702023 0  0.149815 0.318856 0  0.662287 0.923338 0  0.680146 0.791192 0  0.708961 0.663172 0  0.937278 0.287318 0  0.574622 0.688166 0  0.589474 0.076262 0  0.502822 0.926683 0  0.222269 0.811068 0  0.380457 0.164786 0  0.15321 0.684154 0  0.458063 0.051413 0  0.161702 0.056026 0  0.199351 0.198818 0  0.298946 0.095532 0  0.902465 0.795949 0  0.121139 0.791477 0  0.906269 0.112287 0  0.056109 0.822332 0  0.512172 0.13237 0  0.940964 0.741805 0  0.888887 0.408777 0  0.354543 0.825964 0  0.808736 0.068638 0  0.068507 0.394071 0  0.719105 0.563843 0  0.247287 0.149664 0  0.293062 0.237128 0  0.240524 0.434997 0  0.141255 0.623289 0  0.945202 0.160621 0  0.502914 0.247629 0  0.144669 0.480811 0  0.665025 0.060817 0  0.728047 0.224344 0  0.861995 0.313312 0  0.200068 0.534235 0  0.253262 0.965623 0  0.893804 0.49307 0  0.604391 0.572456 0  0.947088 0.345347 0  0.439372 0.227307 0  0.629847 0.159823 0  0.273405 0.880181 0  0.302744 0.776823 0  0.781502 0.295365 0  0.275342 0.349602 0  0.728385 0.472798 0  0.229136 0.246478 0  0.807794 0.480346 0  0.709476 0.112786 0  0.275506 0.694991 0  0.771674 0.394419 0  0.449715 0.861802 0  0.419159 0.799696 0  0.674851 0.503139 0  0.280443 0.61016 0  0.572443 0.192538 0  0.393113 0.87525 0  0.405555 0.948428 0  0.330942 0.934103 0  0.540509 0.597101 0  0.312763 0.668931 0  0.254368 0.540179 0  0.595265 0.25915 0  0.606679 0.234099 0  0.657131 0.279138 0  0.722458 0.279478 0  0.333 0.308056 0  0.351529 0.246142 0  0.455714 0.725794 0  0.585239 0.295143 0  0.340062 0.72492 0  0.545593 0.293773 0  0.555449 0.545426 0  0.414311 0.737314 0  0.590854 0.502323 0  0.350507 0.368444 0  0.484423 0.625665 0  0.483899 0.674542 0  0.378137 0.317274 0  0.446416 0.646404 0  0.373532 0.347654 0  0.446876 0.619769 0  0.466106 0.666068 0  0.437545 0.609254 0  0.434988 0.565726 0  0.41462 0.656829 0  0.418803 0.556961 0  0.398425 0.327446 0  0.517803 0.310421 0  0.549516 0.322918 0  0.57701 0.842889 0  0.829127 0.773906 0  0.643235 0.684732 0  0.134281 0.207734 0  0.865997 0.055966 0  0.680959 0.723345 0  0.165229 0.841555 0  0.54558 0.959672 0  0.783726 0.656439 0  0.913315 0.595533 0  0.699439 0.860667 0  0.785839 0.125076 0  0.551673 0.037713 0  0.920097 0.223214 0  0.206406 0.299726 0  0.087064 0.596401 0  0.935644 0.394252 0  0.964557 0.252582 0  0.230124 0.928346 0  0.120579 0.271764 0  0.857215 0.524082 0  0.767098 0.555147 0  0.936094 0.507131 0  0.804064 0.59585 0  0.700565 0.608273 0  0.429773 0.174231 0  0.117746 0.727333 0  0.538962 0.730231 0  0.862761 0.359173 0  0.821444 0.284046 0  0.193552 0.35818 0  0.234923 0.505555 0  0.193209 0.421217 0  0.220144 0.755896 0  0.594015 0.131642 0  0.283813 0.195855 0  0.517519 0.213961 0  0.553509 0.639116 0  0.280391 0.378018 0  0.852183 0.436817 0  0.746983 0.197173 0  0.821806 0.221318 0  0.449853 0.828453 0  0.883758 0.453926 0  0.183484 0.589542 0  0.348384 0.129314 0  0.255254 0.838525 0  0.504849 0.798516 0  0.320344 0.863432 0  0.611669 0.525425 0  0.265864 0.804962 0  0.72056 0.521442 0  0.613372 0.610122 0  0.481262 0.881068 0  0.655778 0.191988 0  0.701921 0.196918 0  0.565826 0.573181 0  0.46914 0.240927 0  0.343219 0.173284 0  0.888786 0.278502 0  0.244113 0.675093 0  0.739546 0.417914 0  0.784023 0.355942 0  0.326805 0.265549 0  0.248616 0.634948 0  0.789183 0.413964 0  0.764107 0.476606 0  0.32086 0.698956 0  0.334735 0.791464 0  0.53448 0.258468 0  0.395208 0.824575 0  0.309962 0.638947 0  0.263264 0.22712 0  0.756395 0.267254 0  0.639281 0.224663 0  0.358631 0.85116 0  0.309751 0.332089 0  0.663461 0.246436 0  0.424083 0.871774 0  0.269645 0.445719 0  0.272183 0.572741 0  0.624492 0.294638 0  0.717827 0.250266 0  0.408215 0.763744 0  0.485997 0.274924 0  0.288138 0.274311 0  0.410524 0.242487 0  0.741513 0.385737 0  0.691284 0.483519 0  0.515531 0.581849 0  0.463005 0.753402 0  0.681919 0.
[...]
<PointData  Vectors="u"> 
<DataArray  type="Float32"  Name="u"  NumberOfComponents="3" format="ascii">8.100472e-04 3.931479e-02 0.000000e+00  1.040735e-03 4.045575e-02 0.000000e+00  1.522308e-03 4.236488e-02 0.000000e+00  1.668696e-03 4.383403e-02 0.000000e+00  1.728952e-03 4.541885e-02 0.000000e+00  1.710559e-03 4.858814e-02 0.000000e+00  2.123555e-03 5.129747e-02 0.000000e+00  2.492396e-03 5.443342e-02 0.000000e+00  3.224674e-03 5.508156e-02 0.000000e+00  3.433839e-03 5.508331e-02 0.000000e+00  3.702439e-03 5.508088e-02 0.000000e+00  3.802587e-03 5.501095e-02 0.000000e+00  3.880609e-03 5.435469e-02 0.000000e+00  3.455695e-03 5.322108e-02 0.000000e+00  2.280739e-03 5.347146e-02 0.000000e+00  9.014395e-04 5.441658e-02 0.000000e+00  -6.372824e-04 5.573423e-02 0.000000e+00  -2.114464e-03 5.728500e-02 0.000000e+00  -3.007524e-03 5.847028e-02 0.000000e+00  -3.631780e-03 5.947267e-02 0.000000e+00  -4.059779e-03 6.030006e-02 0.000000e+00  -4.200251e-03 6.054130e-02 0.000000e+00  -4.323456e-03 6.078830e-02 0.000000e+00  -4.982017e-03 6.184665e-02 0.000000e+00  -5.574674e-03 6.292695e-02 0.000000e+00  -6.086285e-03 6.407050e-02 0.000000e+00  -6.509319e-03 6.532325e-02 0.000000e+00  -6.381187e-03 6.625561e-02 0.000000e+00  -6.080932e-03 6.733303e-02 0.000000e+00  -5.795204e-03 6.880904e-02 0.000000e+00  -5.275319e-03 7.469569e-02 0.000000e+00  -5.354193e-03 8.134172e-02 0.000000e+00  -5.330897e-03 8.787641e-02 0.000000e+00  -5.818343e-03 9.481764e-02 0.000000e+00  -6.426730e-03 9.852657e-02 0.000000e+00  -7.192779e-03 1.006510e-01 0.000000e+00  -7.902228e-03 1.015599e-01 0.000000e+00  -9.897452e-03 1.037520e-01 0.000000e+00  -1.281645e-02 1.060514e-01 0.000000e+00  -1.335859e-02 1.063512e-01 0.000000e+00  -1.364533e-02 1.066325e-01 0.000000e+00  -1.360533e-02 1.068353e-01 0.000000e+00  -1.353830e-02 1.069726e-01 0.000000e+00  -1.335333e-02 1.069615e-01 0.000000e+00  -1.280708e-02 1.067646e-01 0.000000e+00  -1.151496e-02 1.064462e-01 0.000000e+00  -8.774227e-03 1.050763e-01 0.000000e+00  -3.605466e-03 1.010523e-01 0.000000e+00  2.852508e-03 9.645885e-02 0.000000e+00  7.990492e-03 9.377605e-02 0.000000e+00  1.277875e-02 9.108270e-02 0.000000e+00  1.566822e-02 8.866730e-02 0.000000e+00  1.615918e-02 8.638579e-02 0.000000e+00  1.557641e-02 8.348667e-02 0.000000e+00  1.422572e-02 7.668253e-02 0.000000e+00  1.278170e-02 6.777141e-02 0.000000e+00  1.198433e-02 5.925065e-02 0.000000e+00  1.098566e-02 4.986255e-02 0.000000e+00  9.756839e-03 4.286266e-02 0.000000e+00  8.748596e-03 3.776039e-02 0.000000e+00  7.550829e-03 3.296632e-02 0.000000e+00  6.499365e-03 2.984285e-02 0.000000e+00  5.202899e-03 2.713876e-02 0.000000e+00  4.178089e-03 2.553627e-02 0.000000e+00  3.742286e-03 2.486065e-02 0.000000e+00  2.930251e-03 2.311989e-02 0.000000e+00  2.323046e-03 2.205256e-02 0.000000e+00  1.374260e-03 2.142581e-02 0.000000e+00  8.108872e-04 2.200537e-02 0.000000e+00  4.820019e-04 2.364679e-02 0.000000e+00  4.017771e-04 2.507588e-02 0.000000e+00  2.448949e-04 2.692463e-02 0.000000e+00  7.960613e-05 2.932591e-02 0.000000e+00  3.515580e-05 3.322258e-02 0.000000e+00  3.362971e-04 3.622745e-02 0.000000e+00  6.041564e-04 3.784239e-02 0.000000e+00  7.753179e-04 3.911472e-02 0.000000e+00  0.000000e+00 0.000000e+00 0.000000e+00  0.000000e+00 0.000000e+00 0.000000e+00  5.128927e-03 5.277072e-02 0.000000e+00  -2.278635e-03 5.938774e-02 0.000000e+00  8.184326e-04 3.943151e-02 0.000000e+00  8.420024e-04 3.959960e-02 0.000000e+00  8.832663e-04 3.982006e-02 0.000000e+00  9.473295e-04 4.010150e-02 0.000000e+00  1.131510e-03 4.077498e-02 0.000000e+00  1.246180e-03 4.117413e-02 0.000000e+00  1.380668e-03 4.168130e-02 0.000000e+00  1.608092e-03 4.301233e-02 0.000000e+00  1.737888e-03 4.655784e-02 0.000000e+00  1.725652e-03 4.757108e-02 0.000000e+00  2.037886e-03 5.294963e-02 0.000000e+00  2.213226e-03 5.377761e-02 0.000000e+00  2.799080e-03 5.483272e-02 0.000000e+00  3.050071e-03 5.502039e-02 0.000000e+00  3.562558e-03 5.508343e-02 0.000000e+00  3.832376e-03 5.489866e-02 0.000000e+00  3.864322e-03 5.468520e-02 0.000000e+00  3.855490e-03 5.397890e-02 0.000000e+00  3.747978e-03 5.355898e-02 0.000000e+00  2.990680e-03 5.319439e-02 0.000000e+00  -1.505395e-03 5.659555e-02 0.000000e+00  -3.906375e-03 5.999933e-02 0.000000e+00  -4.545775e-03 6.112368e-02 0.000000e+00  -4.759911e-03 6.143874e-02 0.000000e+00  -6.405570e-03 6.475236e-02 0.000000e+00  -6.491479e-03 6.575465e-02 0.000000e+00  -5.634474e-03 7.071341e-02 0.000000e+00  -5.408164e-03 9.135776e-02 0.000000e+00  -6.870751e-03 9.988731e-02 0.000000e+00  -8.687320e-03 1.024604e-01 0.000000e+00  -1.127723e-02 1.049688e-01 0.000000e+00  -1.225378e-02 1.056966e-01 0.000000e+00  -1.354276e-02 1.064864e-01 0.000000e+00  -1.240159e-02 1.066982e-01 0.000000e+00  -5.659666e-04 9.911935e-02 0.000000e+00  1.618008e-02 8.733575e-02 0.000000e+00  1.340094e-02 7.173455e-02 0.000000e+00  1.143328e-02 5.404667e-02 0.000000e+00  8.259511e-03 3.559706e-02 0.000000e+00  5.755686e-03 2.820395e-02 0.000000e+00  4.599549e-03 2.612110e-02 0.000000e+00  3.372651e-03 2.411273e-02 0.000000e+00  1.921733e-03 2.162096e-02 0.000000e+00  6.278099e-04 2.272169e-02 0.000000e+00  2.921338e-05 3.130706e-02 0.000000e+00  1.776423e-04 3.497872e-02 0.000000e+00  4.896837e-04 3.720081e-02 0.000000e+00  6.542548e-04 3.830092e-02 0.000000e+00  7.024230e-04 3.865865e-02 0.000000e+00  7.425083e-04 3.892117e-02 0.000000e+00  0.000000e+00 0.000000e+00 0.000000e+00  0.000000e+00 0.000000e+00 0.000000e+00  0.000000e+00 0.000000e+00 0.000000e+00  0.000000e+00 0.000000e+00 0.000000e+00  0.000000e+00 0.000000e+00 0.000000e+00  0.000000e+00 0.000000e+00 0.000000e+00  0.000000e+00 0.000000e+00 0.000000e+00  0.000000e+00 0.000000e+00 0.000000e+00  0.000000e+00 0.000000e+00 0.000000e+00  9.509231e-05 8.435078e-03 0.000000e+00  2.821624e-04 1.676466e-02 0.000000e+00  5.969848e-04 2.474858e-02 0.000000e+00  1.075038e-03 3.213265e-02 0.000000e+00  1.712568e-03 3.865164e-02 0.000000e+00  2.490731e-03 4.411136e-02 0.000000e+00  3.399300e-03 4.825588e-02 0.000000e+00  4.260384e-03 5.089863e-02 0.000000e+00  4.866495e-03 5.227877e-02 0.000000e+00  -2.524609e-03 5.990991e-02 0.000000e+00  -2.935435e-03 6.104153e-02 0.000000e+00  -3.202337e-03 6.245687e-02 0.000000e+00  -2.848977e-03 6.330474e-02 0.000000e+00  -1.607668e-03 6.176603e-02 0.000000e+00  -4.187078e-05 5.610414e-02 0.000000e+00  9.217549e-04 4.619529e-02 0.000000e+00  9.700195e-04 3.315952e-02 0.000000e+00  4.637800e-04 1.789192e-02 0.000000e+00  5.530827e-03 5.299777e-02 0.000000e+00  6.054072e-03 5.341167e-02 0.000000e+00  6.122481e-03 5.392000e-02 0.000000e+00  5.409340e-03 5.455725e-02 0.000000e+00  3.972558e-03 5.540072e-02 0.000000e+00  2.194559e-03 5.643489e-02 0.000000e+00  5.017721e-04 5.751024e-02 0.000000e+00  -8.635172e-04 5.844156e-02 0.000000e+00  -1.819608e-03 5.909866e-02 0.000000e+00  1.504823e-02 8.078397e-02 0.000000e+00  4.840051e-03 3.737190e-02 0.000000e+00  -1.866782e-03 5.861283e-02 0.000000e+00  5.266223e-03 5.320771e-02 0.000000e+00  2.614764e-04 2.261611e-02 0.000000e+00  1.123275e-03 3.630175e-02 0.000000e+00  1.430154e-03 1.559147e-02 0.000000e+00  -2.434775e-03 6.567844e-02 0.000000e+00  1.324794e-03 5.593376e-02 0.000000e+00  3.404460e-03 4.975164e-02 0.000000e+00  -3.855715e-03 6.324718e-02 0.000000e+00  5.162529e-03 5.279017e-02 0.000000e+00  -2.324318e-03 5.945664e-02 0.000000e+00  2.359757e-04 1.144026e-02 0.000000e+00  3.855043e-05 5.566989e-03 0.000000e+00  3.639392e-03 5.341228e-02 0.000000e+00  -2.121192e-03 9.055778e-02 0.000000e+00  -6.134733e-03 9.960403e-02 0.000000e+00  -1.245326e-02 1.063333e-01 0.000000e+00  1.380416e-02 8.305813e-02 0.000000e+00  3.542851e-03 5.481377e-02 0.000000e+00  8.272449e-04 3.919295e-02 0.000000e+00  4.573178e-03 5.423111e-02 0.000000e+00  1.534532e-03 2.628865e-02 0.000000e+00  1.988908e-03 5.497791e-02 0.000000e+00  2.735915e-03 1.902667e-02 0.000000e+00  9.527540e-03 5.358614e-02 0.000000e+00  -9.474529e-05 1.205631e-02 0.000000e+00  4.867580e-03 5.237915e-02 0.000000e+00  -3.084980e-03 6.055127e-02 0.000000e+00  1.887153e-03 4.190726e-02 0.000000e+00  1.070001e-04 1.327242e-02 0.000000e+00  -1.190782e-03 5.751200e-02 0.000000e+00  6.654221e-04 2.947939e-02 0.000000e+00  2.858343e-04 2.775959e-02 0.000000e+00  4.706138e-03 5.281167e-02 0.000000e+00  -3.151582e-03 5.990674e-02 0.000000e+00  -8.488936e-04 5.811111e-02 0.000000e+00  5.825417e-03 5.356082e-02 0.000000e+00  -3.063855e-03 6.434170e-02 0.000000e+00  2.005499e-05 5.487997e-03 0.000000e+00  7.771777e-04 3.602946e-02 0.000000e+00  9.451057e-04 1.787983e-02 0.000000e+00  5.105485e-03 2.945517e-02 0.000000e+00  -4.358955e-03 6.750665e-02 0.000000e+00  2.672743e-03 5.564497e-02 0.000000e+00  2.858998e-03 4.943307e-02 0.000000e+00  -3.207923e-03 6.333221e-02 0.000000e+00  3.761999e-03 5.335554e-02 0.000000e+00  1.330101e-02 8.667977e-02 0.000000e+00  3.422949e-03 5.414268e-02 0.000000e+00  3.472206e-03 8.769277e-02 0.000000e+00  -3.740422e-04 8.207327e-02 0.000000e+00  -9.871159e-03 1.045322e-01 0.000000e+00  -3.939609e-03 9.537797e-02 0.000000e+00  -1.314030e-02 1.067261e-01 0.000000e+00  1.454058e-02 8.046612e-02 0.000000e+00  -5.914362e-03 9.710503e-02 0.000000e+00  1.523657e-02 8.565770e-02 0.000000e+00  -7.515212e-03 1.013358e-01 0.000000e+00  -1.319209e-02 1.064479e-01 0.000000e+00  -1.130167e-02 1.060785e-01 0.000000e+00  3.736985e-03 5.467127e-02 0.000000e+00  3.427257e-03 5.500424e-02 0.000000e+00  3.683040e-03 5.497545e-02 0.000000e+00  9.299368e-04 3.956366e-02 0.000000e+00  7.739011e-04 3.896928e-02 0.000000e+00  8.270153e-04 3.932147e-02 0.000000e+00  5.118933e-03 5.940733e-02 0.000000e+00  1.499981e-03 1.701317e-02 0.000000e+00  1.083276e-04 5.726479e-02 0.000000e+00  -2.082919e-04 8.156647e-03 0.000000e+00  -2.157002e-03 5.923677e-02 0.000000e+00  1.572210e-03 3.856315e-02 0.000000e+00  1.310288e-03 1.022691e-02 0.000000e+00  6.502366e-03 3.439892e-02 0.000000e+00  4.125873e-03 5.088945e-02 0.000000e+00  4.174743e-03 5.486178e-02 0.000000e+00  4.480569e-03 5.200534e-02 0.000000e+00  5.533761e-03 5.401234e-02 0.000000e+00  -2.732071e-05 8.778468e-03 0.000000e+00  1.172098e-05 5.919678e-02 0.000000e+00  5.463759e-03 5.306802e-02 0.000000e+00  1.646172e-03 4.139657e-02 0.000000e+00  4.117873e-04 1.319593e-02 0.000000e+00  1.530313e-03 3.809942e-02 0.000000e+00  -3.921799e-03 6.156256e-02 0.000000e+00  2.005436e-04 1.874202e-02 0.000000e+00  3.902442e-04 2.139115e-02 0.000000e+00  2.801259e-03 4.657480e-02 0.000000e+00  2.214579e-03 5.467660e-02 0.000000e+00  8.212468e-04 2.388410e-02 0.000000e+00  9.663118e-03 7.236568e-02 0.000000e+00  3.900006e-03 5.356477e-02 0.000000e+00  -3.359468e-03 6.208159e-02 0.000000e+00  -4.154935e-03 6.505645e-02 0.000000e+00  1.087983e-02 5.386477e-02 0.000000e+00  4.980181e-03 5.255417e-02 0.000000e+00  -2.789712e-03 5.882841e-02 0.000000e+00  2.867776e-03 2.442529e-02 0.000000e+00  5.779155e-04 3.247322e-02 0.000000e+00  -9.104734e-04 5.680180e-02 0.000000e+00  -1.994480e-03 5.849656e-02 0.000000e+00  4.163614e-04 2.693936e-02 0.000000e+00  2.220045e-04 3.153454e-02 0.000000e+00  2.570171e-04 2.616071e-02 0.000000e+00  -2.466657e-03 6.354932e-02 0.000000e+00  4.777436e-04 1.735503e-02 0.000000e+00  -3.473220e-03 6.373056e-02 0.000000e+00  4.051683e-03 5.251178e-02 0.000000e+00  -3.673832e-03 6.042904e-02 0.000000e+00  6.774575e-04 3.690941e-02 0.000000e+00  -5.612471e-03 6.739322e-02 0.000000e+00  1.971714e-03 4.692223e-02 0.000000e+00  1.334816e-02 7.269543e-02 0.000000e+00  3.751070e-03 5.386835e-02 0.000000e+00  8.056544e-04 8.536564e-02 0.000000e+00  -4.774265e-03 9.270371e-02 0.000000e+00  2.973500e-03 5.359428e-02 0.000000e+00  -9.677561e-04 9.436566e-02 0.000000e+00  -2.974241e-03 8.699760e-02 0.000000e+00  -8.673023e-03 1.030659e-01 0.000000e+00  2.871247e-03 9.210310e-02 0.000000e+00  -7.534683e-03 1.028943e-01 0.000000e+00  3.253795e-03 5.474972e-02 0.000000e+00  -1.153265e-02 1.055861e-01 0.000000e+00  -1.343543e-02 1.066756e-01 0.000000e+00  -9.989838e-03 1.052131e-01 0.000000e+00  -1.241282e-02 1.065368e-01 0.000000e+00  -6.694412e-03 9.961975e-02 0.000000e+00  -1.269192e-02 1.061397e-01 0.000000e+00  -1.336989e-02 1.068881e-01 0.000000e+00  1.109347e-03 3.995678e-02 0.000000e+00  8.636844e-04 3.945843e-02 0.000000e+00  7.296048e-04 3.872977e-02 0.000000e+00  8.026772e-04 3.918999e-02 0.000000e+00  -2.701692e-03 6.008630e-02 0.000000e+00  9.636931e-04 1.080968e-02 0.000000e+00  2.986624e-03 3.790860e-02 0.000000e+00  1.271828e-04 6.675645e-02 0.000000e+00  3.260695e-03 2.134269e-02 0.000000e+00  6.660372e-05 1.598284e-02 0.000000e+00  2.966483e-03 2.338724e-02 0.000000e+00  5.214798e-03 5.367977e-02 0.000000e+00  1.163960e-03 5.105099e-02 0.000000e+00  4.169838e-03 4.971921e-02 0.000000e+00  7.401223e-03 4.332666e-02 0.000000e+00  -2.239232e-04 5.186330e-03 0.000000e+00  5.854722e-03 6.846266e-02 0.000000e+00  1.059066e-03 3.331147e-02 0.000000e+00  -1.682179e-03 6.294345e-02 0.000000e+00  -2.995857e-03 6.004940e-02 0.000000e+00  2.366080e-03 4.661378e-02 0.000000e+00  -1.029866e-03 5.776822e-02 0.000000e+00  1.987165e-03 4.147338e-02 0.000000e+00  4.612649e-03 5.191809e-02 0.000000e+00  4.921292e-03 5.256555e-02 0.000000e+00  3.450311e-03 4.924770e-02 0.000000e+00  8.988498e-04 1.548498e-02 0.000000e+00  -1.827507e-03 5.878585e-02 0.000000e+00  2.599280e-05 8.030863e-03 0.000000e+00  -1.537894e-03 5.871088e-02 0.000000e+00  1.476812e-03 3.882937e-02 0.000000e+00  4.490546e-04 8.770559e-03 0.000000e+00  1.416712e-04 1.025061e-02 0.000000e+00  -4.612317e-03 6.315255e-02 0.000000e+00  2.149461e-04 1.620359e-02 0.000000e+00  4.986303e-03 5.442682e-02 0.000000e+00  7.513464e-03 3.752849e-02 0.000000e+00  4.198284e-03 5.130756e-02 0.000000e+00  3.954609e-03 5.162488e-02 0.000000e+00  2.834481e-03 5.404249e-02 0.000000e+00  7.073610e-05 5.685014e-02 0.000000e+00  -1.497009e-05 4.702511e-03 0.000000e+00  1.469843e-03 4.027629e-02 0.000000e+00  2.885741e-03 5.494087e-02 0.000000e+00  6.901321e-04 2.768791e-02 0.000000e+00  2.455185e-04 2.316636e-02 0.000000e+00  -1.158493e-04 1.229766e-02 0.000000e+00  9.343264e-04 5.559486e-02 0.000000e+00  -3.159219e-03 6.169087e-02 0.000000e+00  9.813081e-04 1.056332e-02 0.000000e+00  1.156983e-02 6.497640e-02 0.000000e+00  -3.817160e-04 4.145797e-03 0.000000e+00  1.784093e-03 4.361156e-02 0.000000e+00  6.121469e-04 3.083917e-02 0.000000e+00  -3.541470e-03 6.160031e-02 0.000000e+00  -3.878710e-03 6.093573e-02 0.000000e+00  5.032871e-04 1.913393e-02 0.000000e+00  4.166822e-03 5.316654e-02 0.000000e+00  5.334091e-03 3.102484e-02 0.000000e+00  4.839920e-03 5.267026e-02 0.000000e+00  2.356036e-03 2.061318e-02 0.000000e+00  4.146750e-04 2.442126e-02 0.000000e+00  -2.953202e-03 5.933245e-02 0.000000e+00  2.085499e-03 2.219860e-02 0.000000e+00  -3.310495e-03 6.516091e-02 0.000000e+00  -4.856603e-03 6.573555e-02 0.000000e+00  9.222327e-03 4.358162e-02 0.000000e+00  -2.259611e-03 5.785149e-02 0.000000e+00  8.889183e-04 3.531307e-02 0.000000e+00  -3.925072e-03 6.422063e-02 0.000000e+00  -3.015340e-03 6.375517e-02 0.000000e+00  -3.455366e-03 6.292221e-02 0.000000e+00  9.001579e-03 8.105411e-02 0.000000e+00  -3.389861e-03 5.955408e-02 0.000000e+00  -2.694673e-04 5.590348e-02 0.000000e+00  4.107830e-04 3.417956e-02 0.000000e+00  4.522732e-04 3.306933e-02 0.000000e+00  1.508311e-04 2.891566e-02 0.000000e+00  3.969494e-04 2.355488e-02 0.000000e+00  3.576938e-03 5.277248e-02 0.000000e+00  2.372118e-03 4.970044e-02 0.000000e+00  -5.565663e-03 6.921501e-02 0.000000e+00  3.260656e-04 3.537169e-02 0.000000e+00  -4.032654e-03 6.075292e-02 0.000000e+00  8.583315e-04 3.833020e-02 0.000000e+00  1.318394e-02 7.791830e-02 0.000000e+00  -6.087542e-03 6.639838e-02 0.000000e+00  1.272254e-02 6.709465e-02 0.000000e+00  3.783310e-03 5.366621e-02 0.000000e+00  5.457025e-04 8.992217e-02 0.000000e+00  -2.996993e-03 8.336783e-02 0.000000e+00  2.975121e-03 5.437920e-02 0.000000e+00  -5.183021e-03 9.627374e-02 0.000000e+00  3.676323e-03 5.431886e-02 0.000000e+00  -4.127363e-03 9.938775e-02 0.000000e+00  -4.768544e-03 8.962009e-02 0.000000e+00  -6.854800e-03 1.032604e-01 0.000000e+00  -1.299469e-02 1.067828e-01 0.000000e+00  -7.201222e-03 1.006773e-01 0.000000e+00  -1.349059e-02 1.068500e-01 0.000000e+00  3.238233e-03 5.498104e-02 0.000000e+00  1.051359e-03 4.008598e-02 0.000000e+00  6.907619e-04 3.842614e-02 0.000000e+00  8.119987e-04 6.114284e-02 0.000000e+00  2.491801e-03 2.640995e-02 0.000000e+00  7.775535e-03 5.609407e-02 0.000000e+00  5.409571e-03 5.314522e-02 0.000000e+00  1.216189e-04 1.138444e-02 0.000000e+00  6.317940e-03 4.943890e-02 0.000000e+00  -2.561400e-03 5.964025e-02 0.000000e+00  -8.482974e-04 6.042329e-02 0.000000e+00  4.980275e-03 3.020609e-02 0.000000e+00  1.143324e-03 9.770284e-03 0.000000e+00  2.456504e-03 4.683802e-02 0.000000e+00  1.872779e-04 1.823040e-02 0.000000e+00  1.347087e-03 3.564512e-02 0.000000e+00  -1.004597e-04 6.827971e-03 0.000000e+00  4.996110e-03 5.324866e-02 0.000000e+00  1.272940e-03 5.639698e-02 0.000000e+00  4.950637e-05 5.215441e-03 0.000000e+00  -6.060952e-05 2.923520e-03 0.000000e+00  -3.134747e-03 6.116205e-02 0.000000e+00  5.549322e-03 5.355683e-02 0.000000e+00  1.933180e-03 1.546115e-02 0.000000e+00  5.204130e-03 2.889715e-02 0.000000e+00  8.379016e-04 5.665734e-03 0.000000e+00  4.213994e-03 2.482427e-02 0.000000e+00  8.410184e-03 4.309834e-02 0.000000e+00  1.936114e-03 4.394581e-02 0.000000e+00  -1.133485e-03 5.808939e-02 0.000000e+00  1.699527e-03 7.040014e-02 0.000000e+00  1.923976e-05 1.258205e-02 0.000000e+00  1.188001e-04 1.575604e-02 0.000000e+00  4.605285e-03 5.367778e-02 0.000000e+00  1.036993e-03 5.511912e-02 0.000000e+00  3.606427e-03 5.414982e-02 0.000000e+00  -2.641705e-03 5.936838e-02 0.000000e+00  9.066442e-04 3.333091e-02 0.000000e+00  3.885874e-03 5.110554e-02 0.000000e+00  1.349742e-03 3.912995e-02 0.000000e+00  6.781867e-03 7.538660e-02 0.000000e+00  3.738094e-03 5.332771e-02 0.000000e+00  7.874835e-04 1.456697e-02 0.000000e+00  2.054640e-04 2.159238e-02 0.000000e+00  2.983655e-05 1.542526e-02 0.000000e+00  -3.750798e-03 6.594643e-02 0.000000e+00  5.787744e-04 1.124511e-02 0.000000e+00  3.026305e-05 5.648706e-02 0.000000e+00  2.846486e-03 4.775220e-02 0.000000e+00  -3.431474e-03 6.087111e-02 0.000000e+00  -1.897342e-03 6.716377e-02 0.000000e+00  -3.993737e-03 6.247536e-02 0.000000e+00  1.209376e-02 6.185544e-02 0.000000e+00  -3.490176e-03 6.065838e-02 0.000000e+00  6.809239e-03 3.509596e-02 0.000000e+00  1.034378e-02 6.277991e-02 0.000000e+00  -2.379166e-03 6.451853e-02 0.000000e+00  3.950337e-04 2.895210e-02 0.000000e+00  2.783522e-04 2.525155e-02 0.000000e+00  1.159360e-02 7.543052e-02 0.000000e+00  1.690571e-03 4.202877e-02 0.000000e+00  2.829537e-03 4.858709e-02 0.000000e+00  -2.125157e-04 9.648969e-03 0.000000e+00  -2.296743e-03 5.854175e-02 0.000000e+00  3.750526e-03 2.647119e-02 0.000000e+00  1.206638e-03 1.990113e-02 0.000000e+00  3.404794e-03 5.156870e-02 0.000000e+00  -1.930843e-03 5.788529e-02 0.000000e+00  1.767781e-03 2.101211e-02 0.000000e+00  3.699020e-03 2.609950e-02 0.000000e+00  -3.635575e-03 6.013301e-02 0.000000e+00  -4.529368e-03 6.195240e-02 0.000000e+00  1.118114e-03 3.856669e-02 0.000000e+00  -4.684204e-03 6.461610e-02 0.000000e+00  -3.163206e-03 5.899018e-02 0.000000e+00  4.369975e-03 5.201101e-02 0.000000e+00  3.718895e-04 2.094036e-02 0.000000e+00  3.355724e-04 3.038607e-02 0.000000e+00  -4.329065e-03 6.341805e-02 0.000000e+00  4.013991e-03 5.299429e-02 0.000000e+00  2.281225e-04 2.842480e-02 0.000000e+00  -3.641664e-03 6.476330e-02 0.000000e+00  2.186960e-03 5.397532e-02 0.000000e+00  -1.423741e-03 5.685005e-02 0.000000e+00  7.247481e-05 3.181854e-02 0.000000e+00  2.874402e-04 2.398528e-02 0.000000e+00  -5.680340e-03 6.570792e-02 0.000000e+00  1.559440e-03 4.135798e-02 0.000000e+00  4.279685e-03 5.232623e-02 0.000000e+00  1.793185e-03 4.534040e-02 0.000000e+00  3.271272e-03 2.462428e-02 0.000000e+00  7.980433e-03 3.852783e-02 0.000000e+00  9.877377e-03 8.715337e-02 0.000000e+00  -4.690113e-03 6.884891e-02 0.000000e+00  2.444798e-04 2.