<?xml version="1.0"?>
<VTKFile type="UnstructuredGrid"  version="0.1"  >
<UnstructuredGrid>
<Piece  NumberOfPoints="2868" NumberOfCells="5400">
<Points>
<DataArray  type="Float32"  NumberOfComponents="3"  format="ascii">0.534923 0.326073 0  0.510642 0.314196 0  0.466125 0.293082 0  0.436448 0.281205 0  0.409468 0.275927 0  0.368998 0.270648 0  0.35281 0.275927 0  0.381139 0.302319 0  0.405421 0.326073 0  0.410817 0.33531 0  0.408119 0.349826 0  0.400025 0.357744 0  0.375743 0.368301 0  0.329878 0.392055 0  0.297502 0.432963 0  0.282663 0.476511 0  0.285361 0.524018 0  0.298851 0.572845 0  0.317737 0.604516 0  0.337972 0.636187 0  0.360904 0.674457 0  0.368998 0.69953 0  0.359555 0.721964 0  0.360904 0.757594 0  0.370347 0.766831 0  0.381139 0.762872 0  0.390582 0.741758 0  0.404072 0.720644 0  0.424307 0.707448 0  0.447239 0.702169 0  0.480964 0.704808 0  0.479615 0.688973 0  0.468823 0.675776 0  0.447239 0.669178 0  0.428354 0.669178 0  0.410817 0.6639 0  0.404072 0.653343 0  0.395978 0.628269 0  0.387884 0.59132 0  0.389233 0.576804 0  0.397327 0.557009 0  0.410817 0.547772 0  0.424307 0.546452 0  0.437797 0.55305 0  0.44589 0.566247 0  0.441843 0.582082 0  0.439145 0.597918 0  0.449937 0.609795 0  0.468823 0.603196 0  0.479615 0.59 0  0.489058 0.570205 0  0.494454 0.546452 0  0.505246 0.522699 0  0.522783 0.509502 0  0.55246 0.494986 0  0.586185 0.484429 0  0.615863 0.48047 0  0.64554 0.473872 0  0.667124 0.461995 0  0.683312 0.451438 0  0.696802 0.435603 0  0.703547 0.417128 0  0.71164 0.393374 0  0.718385 0.37226 0  0.72513 0.364342 0  0.739969 0.353785 0  0.745365 0.344548 0  0.745365 0.327393 0  0.737271 0.318155 0  0.718385 0.316835 0  0.700849 0.319475 0  0.677916 0.318155 0  0.650936 0.316835 0  0.610467 0.318155 0  0.57944 0.324753 0  0.559205 0.328712 0  0.53897 0.326073 0  1 1 0  1 0 0  0 0 0  0 1 0  0.532238 0.32476 0  0.528748 0.323052 0  0.52421 0.320833 0  0.518311 0.317947 0  0.503447 0.310783 0  0.494093 0.306347 0  0.481933 0.30058 0  0.452151 0.28749 0  0.392327 0.273691 0  0.379141 0.271971 0  0.360474 0.283066 0  0.369797 0.291752 0  0.391424 0.31238 0  0.399335 0.32012 0  0.40958 0.341964 0  0.393939 0.36039 0  0.386028 0.36383 0  0.364248 0.374254 0  0.349304 0.381994 0  0.315801 0.409841 0  0.292986 0.551616 0  0.350934 0.657818 0  0.360127 0.737055 0  0.360566 0.748664 0  0.385245 0.753692 0  0.396447 0.732578 0  0.466301 0.703661 0  0.459439 0.672908 0  0.418442 0.666195 0  0.400553 0.642441 0  0.39255 0.612619 0  0.389913 0.60058 0  0.392752 0.568197 0  0.444131 0.573132 0  0.458149 0.606926 0  0.500554 0.533026 0  0.571522 0.489019 0  0.632637 0.476741 0  0.689177 0.444553 0  0.708121 0.403702 0  0.715453 0.38144 0  0.732406 0.359166 0  0.745365 0.337089 0  0.72906 0.317581 0  0.629879 0.317522 0  0.59293 0.321884 0  0.568003 0.326991 0  0.55202 0.327775 0  0.546493 0.327054 0  0.542241 0.326499 0  1 0.9 0  1 0.8 0  1 0.7 0  1 0.6 0  1 0.5 0  1 0.4 0  1 0.3 0  1 0.2 0  1 0.1 0  0.9 0 0  0.8 0 0  0.7 0 0  0.6 0 0  0.5 0 0  0.4 0 0  0.3 0 0  0.2 0 0  0.1 0 0  0.1 1 0  0.2 1 0  0.3 1 0  0.4 1 0  0.5 1 0  0.6 1 0  0.7 1 0  0.8 1 0  0.9 1 0  0 0.1 0  0 0.2 0  0 0.3 0  0 0.4 0  0 0.5 0  0 0.6 0  0 0.7 0  0 0.8 0  0 0.9 0  0.535686 0.503191 0  0.753987 0.733359 0  0.167145 0.741436 0  0.173378 0.257204 0  0.733497 0.159862 0  0.554096 0.15788 0  0.849187 0.479053 0  0.488793 0.838452 0  0.138507 0.5592 0  0.30686 0.154944 0  0.348904 0.890523 0  0.058006 0.065099 0  0.069849 0.937917 0  0.93633 0.939704 0  0.934625 0.053613 0  0.343397 0.333452 0  0.473272 0.639943 0  0.433266 0.638072 0  0.415174 0.58269 0  0.533435 0.545042 0  0.390848 0.340652 0  0.53655 0.320242 0  0.127966 0.393775 0  0.83861 0.850455 0  0.635242 0.85513 0  0.852158 0.633441 0  0.653427 0.626848 0  0.861226 0.24292 0  0.166128 0.12976 0  0.216875 0.869871 0  0.458305 0.11179 0  0.84446 0.101633 0  0.202024 0.642528 0  0.644825 0.115855 0  0.671342 0.218358 0  0.251354 0.286186 0  0.262388 0.75153 0  0.063044 0.751571 0  0.068189 0.242962 0  0.435781 0.905395 0  0.934144 0.451133 0  0.568393 0.237622 0  0.814984 0.395506 0  0.752951 0.517227 0  0.456254 0.780699 0  0.073352 0.531116 0  0.337731 0.206071 0  0.363213 0.960371 0  0.330742 0.363592 0  0.516613 0.55705 0  0.369057 0.332992 0  0.500926 0.617309 0  0.498004 0.665534 0  0.412142 0.61178 0  0.454233 0.636604 0  0.422782 0.567496 0  0.541193 0.52148 0  0.439761 0.65557 0  0.5163 0.533672 0  0.414775 0.64562 0  0.40073 0.576135 0  0.430362 0.588034 0  0.385432 0.351492 0  0.400298 0.335397 0  0.398325 0.348194 0  0.528702 0.314885 0  0.540814 0.322334 0  0.534477 0.322953 0  0.619095 0.743583 0  0.885162 0.737972 0  0.08076 0.668849 0  0.90734 0.36634 0  0.094687 0.868937 0  0.759838 0.912152 0  0.901518 0.540898 0  0.747285 0.607479 0  0.229182 0.071641 0  0.069154 0.450091 0  0.244775 0.203309 0  0.076534 0.331755 0  0.897847 0.167826 0  0.578909 0.911415 0  0.077133 0.146341 0  0.477215 0.203448 0  0.922631 0.869341 0  0.517415 0.074785 0  0.297026 0.827793 0  0.783271 0.246505 0  0.74519 0.061079 0  0.36033 0.069068 0  0.210313 0.475228 0  0.859426 0.928758 0  0.574548 0.609182 0  0.243069 0.383398 0  0.283099 0.934598 0  0.417416 0.843141 0  0.643942 0.553164 0  0.112687 0.079336 0  0.281357 0.658386 0  0.765043 0.436177 0  0.611361 0.198486 0  0.234496 0.58911 0  0.206479 0.702638 0  0.679608 0.155818 0  0.62682 0.259978 0  0.690538 0.264164 0  0.448938 0.956308 0  0.808154 0.328403 0  0.379583 0.91913 0  0.308083 0.297769 0  0.312358 0.730249 0  0.563101 0.278576 0  0.435597 0.746198 0  0.385475 0.225229 0  0.572248 0.518034 0  0.357864 0.35422 0  0.497647 0.641694 0  0.458101 0.655768 0  0.360474 0.310727 0  0.467038 0.620139 0  0.47798 0.659909 0  0.41102 0.628072 0  0.48324 0.609015 0  0.427544 0.617941 0  0.388633 0.328253 0  0.405336 0.599404 0  0.408351 0.565178 0  0.42395 0.600985 0  0.431562 0.576523 0  0.424905 0.655198 0  0.398064 0.58782 0  0.427739 0.557934 0  0.519291 0.303443 0  0.53142 0.320293 0  0.5449 0.323642 0  0.537166 0.323513 0  0.153974 0.920841 0  0.918186 0.67343 0  0.759946 0.820588 0  0.537526 0.783091 0  0.816532 0.545843 0  0.813991 0.178083 0  0.836774 0.702023 0  0.149815 0.318856 0  0.662287 0.923338 0  0.680146 0.791192 0  0.708961 0.663172 0  0.937278 0.287318 0  0.574622 0.688166 0  0.589474 0.076262 0  0.502822 0.926683 0  0.222269 0.811068 0  0.380457 0.164786 0  0.15321 0.684154 0  0.458063 0.051413 0  0.161702 0.056026 0  0.199351 0.198818 0  0.298946 0.095532 0  0.902465 0.795949 0  0.121139 0.791477 0  0.906269 0.112287 0  0.056109 0.822332 0  0.512172 0.13237 0  0.940964 0.741805 0  0.888887 0.408777 0  0.354543 0.825964 0  0.808736 0.068638 0  0.068507 0.394071 0  0.719105 0.563843 0  0.247287 0.149664 0  0.293062 0.237128 0  0.240524 0.434997 0  0.141255 0.623289 0  0.945202 0.160621 0  0.502914 0.247629 0  0.144669 0.480811 0  0.665025 0.060817 0  0.728047 0.224344 0  0.861995 0.313312 0  0.200068 0.534235 0  0.253262 0.965623 0  0.893804 0.49307 0  0.604391 0.572456 0  0.947088 0.345347 0  0.439372 0.227307 0  0.629847 0.159823 0  0.273405 0.880181 0  0.302744 0.776823 0  0.781502 0.295365 0  0.275342 0.349602 0  0.728385 0.472798 0  0.229136 0.246478 0  0.807794 0.480346 0  0.709476 0.112786 0  0.275506 0.694991 0  0.771674 0.394419 0  0.449715 0.861802 0  0.419159 0.799696 0  0.674851 0.503139 0  0.280443 0.61016 0  0.572443 0.192538 0  0.393113 0.87525 0  0.405555 0.948428 0  0.330942 0.934103 0  0.540509 0.597101 0  0.312763 0.668931 0  0.254368 0.540179 0  0.595265 0.25915 0  0.606679 0.234099 0  0.657131 0.279138 0  0.722458 0.279478 0  0.333 0.308056 0  0.351529 0.246142 0  0.455714 0.725794 0  0.585239 0.295143 0  0.340062 0.72492 0  0.545593 0.293773 0  0.555449 0.545426 0  0.414311 0.737314 0  0.590854 0.502323 0  0.350507 0.368444 0  0.484423 0.625665 0  0.483899 0.674542 0  0.378137 0.317274 0  0.446416 0.646404 0  0.373532 0.347654 0  0.446876 0.619769 0  0.466106 0.666068 0  0.437545 0.609254 0  0.434988 0.565726 0  0.41462 0.656829 0  0.418803 0.556961 0  0.398425 0.327446 0  0.517803 0.310421 0  0.549516 0.322918 0  0.57701 0.842889 0  0.829127 0.773906 0  0.643235 0.684732 0  0.134281 0.207734 0  0.865997 0.055966 0  0.680959 0.723345 0  0.165229 0.841555 0  0.54558 0.959672 0  0.783726 0.656439 0  0.913315 0.595533 0  0.699439 0.860667 0  0.785839 0.125076 0  0.551673 0.037713 0  0.920097 0.223214 0  0.206406 0.299726 0  0.087064 0.596401 0  0.935644 0.394252 0  0.964557 0.252582 0  0.230124 0.928346 0  0.120579 0.271764 0  0.857215 0.524082 0  0.767098 0.555147 0  0.936094 0.507131 0  0.804064 0.59585 0  0.700565 0.608273 0  0.429773 0.174231 0  0.117746 0.727333 0  0.538962 0.730231 0  0.862761 0.359173 0  0.821444 0.284046 0  0.193552 0.35818 0  0.234923 0.505555 0  0.193209 0.421217 0  0.220144 0.755896 0  0.594015 0.131642 0  0.283813 0.195855 0  0.517519 0.213961 0  0.553509 0.639116 0  0.280391 0.378018 0  0.852183 0.436817 0  0.746983 0.197173 0  0.821806 0.221318 0  0.449853 0.828453 0  0.883758 0.453926 0  0.183484 0.589542 0  0.348384 0.129314 0  0.255254 0.838525 0  0.504849 0.798516 0  0.320344 0.863432 0  0.611669 0.525425 0  0.265864 0.804962 0  0.72056 0.521442 0  0.613372 0.610122 0  0.481262 0.881068 0  0.655778 0.191988 0  0.701921 0.196918 0  0.565826 0.573181 0  0.46914 0.240927 0  0.343219 0.173284 0  0.888786 0.278502 0  0.244113 0.675093 0  0.739546 0.417914 0  0.784023 0.355942 0  0.326805 0.265549 0  0.248616 0.634948 0  0.789183 0.413964 0  0.764107 0.476606 0  0.32086 0.698956 0  0.334735 0.791464 0  0.53448 0.258468 0  0.395208 0.824575 0  0.309962 0.638947 0  0.263264 0.22712 0  0.756395 0.267254 0  0.639281 0.224663 0  0.358631 0.85116 0  0.309751 0.332089 0  0.663461 0.246436 0  0.424083 0.871774 0  0.269645 0.445719 0  0.272183 0.572741 0  0.624492 0.294638 0  0.717827 0.250266 0  0.408215 0.763744 0  0.485997 0.274924 0  0.288138 0.274311 0  0.410524 0.242487 0  0.741513 0.385737 0  0.691284 0.483519 0  0.515531 0.581849 0  0.463005 0.753402 0  0.681919 0.
[...]
<PointData  Vectors="u"> 
<DataArray  type="Float32"  Name="u"  NumberOfComponents="3" format="ascii">1.651428e-03 8.020688e-02 0.000000e+00  2.123702e-03 8.253373e-02 0.000000e+00  3.109857e-03 8.642493e-02 0.000000e+00  3.410783e-03 8.941915e-02 0.000000e+00  3.535474e-03 9.264976e-02 0.000000e+00  3.501033e-03 9.911147e-02 0.000000e+00  4.346130e-03 1.046367e-01 0.000000e+00  5.103078e-03 1.110349e-01 0.000000e+00  6.599187e-03 1.123578e-01 0.000000e+00  7.026414e-03 1.123613e-01 0.000000e+00  7.574997e-03 1.123564e-01 0.000000e+00  7.779517e-03 1.122135e-01 0.000000e+00  7.938788e-03 1.108727e-01 0.000000e+00  7.071105e-03 1.085534e-01 0.000000e+00  4.672786e-03 1.090571e-01 0.000000e+00  1.857822e-03 1.109793e-01 0.000000e+00  -1.281960e-03 1.136622e-01 0.000000e+00  -4.295911e-03 1.168212e-01 0.000000e+00  -6.117613e-03 1.192362e-01 0.000000e+00  -7.390465e-03 1.212786e-01 0.000000e+00  -8.262262e-03 1.229638e-01 0.000000e+00  -8.548035e-03 1.234548e-01 0.000000e+00  -8.798955e-03 1.239571e-01 0.000000e+00  -1.014141e-02 1.261103e-01 0.000000e+00  -1.134962e-02 1.283091e-01 0.000000e+00  -1.239267e-02 1.306371e-01 0.000000e+00  -1.325511e-02 1.331882e-01 0.000000e+00  -1.299409e-02 1.350874e-01 0.000000e+00  -1.238206e-02 1.372823e-01 0.000000e+00  -1.179937e-02 1.402893e-01 0.000000e+00  -1.073754e-02 1.522813e-01 0.000000e+00  -1.089411e-02 1.658216e-01 0.000000e+00  -1.084221e-02 1.791334e-01 0.000000e+00  -1.183080e-02 1.932703e-01 0.000000e+00  -1.306799e-02 2.008224e-01 0.000000e+00  -1.462684e-02 2.051473e-01 0.000000e+00  -1.607049e-02 2.069974e-01 0.000000e+00  -2.012991e-02 2.114596e-01 0.000000e+00  -2.606870e-02 2.161398e-01 0.000000e+00  -2.717151e-02 2.167499e-01 0.000000e+00  -2.775460e-02 2.173225e-01 0.000000e+00  -2.767316e-02 2.177352e-01 0.000000e+00  -2.753685e-02 2.180146e-01 0.000000e+00  -2.716070e-02 2.179924e-01 0.000000e+00  -2.604937e-02 2.175919e-01 0.000000e+00  -2.341985e-02 2.169440e-01 0.000000e+00  -1.784142e-02 2.141558e-01 0.000000e+00  -7.318152e-03 2.059642e-01 0.000000e+00  5.835418e-03 1.966121e-01 0.000000e+00  1.630286e-02 1.911488e-01 0.000000e+00  2.605829e-02 1.856619e-01 0.000000e+00  3.194437e-02 1.807398e-01 0.000000e+00  3.294265e-02 1.760895e-01 0.000000e+00  3.175324e-02 1.701802e-01 0.000000e+00  2.899768e-02 1.563117e-01 0.000000e+00  2.605212e-02 1.381491e-01 0.000000e+00  2.442546e-02 1.207822e-01 0.000000e+00  2.238872e-02 1.016472e-01 0.000000e+00  1.988325e-02 8.737967e-02 0.000000e+00  1.782761e-02 7.697996e-02 0.000000e+00  1.538555e-02 6.720863e-02 0.000000e+00  1.324176e-02 6.084256e-02 0.000000e+00  1.059862e-02 5.533150e-02 0.000000e+00  8.509459e-03 5.206576e-02 0.000000e+00  7.621133e-03 5.068894e-02 0.000000e+00  5.965878e-03 4.714204e-02 0.000000e+00  4.728087e-03 4.496812e-02 0.000000e+00  2.794142e-03 4.369448e-02 0.000000e+00  1.645912e-03 4.487996e-02 0.000000e+00  9.761292e-04 4.823148e-02 0.000000e+00  8.130840e-04 5.114842e-02 0.000000e+00  4.935621e-04 5.492147e-02 0.000000e+00  1.570114e-04 5.982194e-02 0.000000e+00  6.749863e-05 6.777420e-02 0.000000e+00  6.831029e-04 7.390674e-02 0.000000e+00  1.230388e-03 7.720255e-02 0.000000e+00  1.580423e-03 7.979870e-02 0.000000e+00  0.000000e+00 0.000000e+00 0.000000e+00  0.000000e+00 0.000000e+00 0.000000e+00  1.046998e-02 1.076293e-01 0.000000e+00  -4.638087e-03 1.211057e-01 0.000000e+00  1.668649e-03 8.044496e-02 0.000000e+00  1.716934e-03 8.078783e-02 0.000000e+00  1.801416e-03 8.123746e-02 0.000000e+00  1.932542e-03 8.181142e-02 0.000000e+00  2.309481e-03 8.318456e-02 0.000000e+00  2.544197e-03 8.399820e-02 0.000000e+00  2.819582e-03 8.503186e-02 0.000000e+00  3.285938e-03 8.774441e-02 0.000000e+00  3.554803e-03 9.497183e-02 0.000000e+00  3.530789e-03 9.703771e-02 0.000000e+00  4.173336e-03 1.080071e-01 0.000000e+00  4.532304e-03 1.096965e-01 0.000000e+00  5.729768e-03 1.118499e-01 0.000000e+00  6.242525e-03 1.122330e-01 0.000000e+00  7.289312e-03 1.123616e-01 0.000000e+00  7.840342e-03 1.119841e-01 0.000000e+00  7.905562e-03 1.115480e-01 0.000000e+00  7.887443e-03 1.101047e-01 0.000000e+00  7.667848e-03 1.092460e-01 0.000000e+00  6.121933e-03 1.084959e-01 0.000000e+00  -3.053201e-03 1.154166e-01 0.000000e+00  -7.949947e-03 1.223514e-01 0.000000e+00  -9.251959e-03 1.246393e-01 0.000000e+00  -9.688454e-03 1.252803e-01 0.000000e+00  -1.304352e-02 1.320256e-01 0.000000e+00  -1.321883e-02 1.340669e-01 0.000000e+00  -1.147105e-02 1.441687e-01 0.000000e+00  -1.099748e-02 1.862243e-01 0.000000e+00  -1.397151e-02 2.035927e-01 0.000000e+00  -1.766783e-02 2.088306e-01 0.000000e+00  -2.293716e-02 2.139365e-01 0.000000e+00  -2.492399e-02 2.154177e-01 0.000000e+00  -2.754607e-02 2.170252e-01 0.000000e+00  -2.522423e-02 2.174568e-01 0.000000e+00  -1.127901e-03 2.020292e-01 0.000000e+00  3.298617e-02 1.780258e-01 0.000000e+00  2.731519e-02 1.462267e-01 0.000000e+00  2.330157e-02 1.101754e-01 0.000000e+00  1.683042e-02 7.257059e-02 0.000000e+00  1.172558e-02 5.750237e-02 0.000000e+00  9.368612e-03 5.325759e-02 0.000000e+00  6.867684e-03 4.916488e-02 0.000000e+00  3.909906e-03 4.408986e-02 0.000000e+00  1.273069e-03 4.634293e-02 0.000000e+00  5.477368e-05 6.386501e-02 0.000000e+00  3.588747e-04 7.135823e-02 0.000000e+00  9.965130e-04 7.589322e-02 0.000000e+00  1.332849e-03 7.813822e-02 0.000000e+00  1.431358e-03 7.886817e-02 0.000000e+00  1.513332e-03 7.940381e-02 0.000000e+00  0.000000e+00 0.000000e+00 0.000000e+00  0.000000e+00 0.000000e+00 0.000000e+00  0.000000e+00 0.000000e+00 0.000000e+00  0.000000e+00 0.000000e+00 0.000000e+00  0.000000e+00 0.000000e+00 0.000000e+00  0.000000e+00 0.000000e+00 0.000000e+00  0.000000e+00 0.000000e+00 0.000000e+00  0.000000e+00 0.000000e+00 0.000000e+00  0.000000e+00 0.000000e+00 0.000000e+00  1.937194e-04 1.720303e-02 0.000000e+00  5.750732e-04 3.419248e-02 0.000000e+00  1.217616e-03 5.047855e-02 0.000000e+00  2.194218e-03 6.554158e-02 0.000000e+00  3.496974e-03 7.883885e-02 0.000000e+00  5.086528e-03 8.997375e-02 0.000000e+00  6.941336e-03 9.842505e-02 0.000000e+00  8.698450e-03 1.038132e-01 0.000000e+00  9.934838e-03 1.066265e-01 0.000000e+00  -5.139138e-03 1.221693e-01 0.000000e+00  -5.975900e-03 1.244737e-01 0.000000e+00  -6.519311e-03 1.273544e-01 0.000000e+00  -5.799081e-03 1.290766e-01 0.000000e+00  -3.269929e-03 1.259337e-01 0.000000e+00  -7.990466e-05 1.143868e-01 0.000000e+00  1.882643e-03 9.418349e-02 0.000000e+00  1.979473e-03 6.760614e-02 0.000000e+00  9.462307e-04 3.647874e-02 0.000000e+00  1.128946e-02 1.080920e-01 0.000000e+00  1.235641e-02 1.089351e-01 0.000000e+00  1.249540e-02 1.099697e-01 0.000000e+00  1.103981e-02 1.112666e-01 0.000000e+00  8.108106e-03 1.129838e-01 0.000000e+00  4.481050e-03 1.150901e-01 0.000000e+00  1.028837e-03 1.172807e-01 0.000000e+00  -1.754511e-03 1.191781e-01 0.000000e+00  -3.702917e-03 1.205168e-01 0.000000e+00  3.067560e-02 1.646714e-01 0.000000e+00  9.868555e-03 7.619060e-02 0.000000e+00  -3.797578e-03 1.195267e-01 0.000000e+00  1.075323e-02 1.085210e-01 0.000000e+00  5.310252e-04 4.612868e-02 0.000000e+00  2.292607e-03 7.405064e-02 0.000000e+00  2.914080e-03 3.178902e-02 0.000000e+00  -4.954357e-03 1.339062e-01 0.000000e+00  2.711565e-03 1.140687e-01 0.000000e+00  6.953589e-03 1.014780e-01 0.000000e+00  -7.850006e-03 1.289628e-01 0.000000e+00  1.053862e-02 1.076690e-01 0.000000e+00  -4.731141e-03 1.212460e-01 0.000000e+00  4.813921e-04 2.332460e-02 0.000000e+00  7.850163e-05 1.135339e-02 0.000000e+00  7.444334e-03 1.089479e-01 0.000000e+00  -4.299000e-03 1.845929e-01 0.000000e+00  -1.247128e-02 2.030147e-01 0.000000e+00  -2.532931e-02 2.167139e-01 0.000000e+00  2.814396e-02 1.693087e-01 0.000000e+00  7.248975e-03 1.118108e-01 0.000000e+00  1.686566e-03 7.995806e-02 0.000000e+00  9.338770e-03 1.106023e-01 0.000000e+00  3.129395e-03 5.359630e-02 0.000000e+00  4.059054e-03 1.120866e-01 0.000000e+00  5.577361e-03 3.879021e-02 0.000000e+00  1.942536e-02 1.092420e-01 0.000000e+00  -1.941516e-04 2.458662e-02 0.000000e+00  9.937873e-03 1.068323e-01 0.000000e+00  -6.280457e-03 1.234750e-01 0.000000e+00  3.854564e-03 8.548202e-02 0.000000e+00  2.175736e-04 2.706888e-02 0.000000e+00  -2.417615e-03 1.172839e-01 0.000000e+00  1.356639e-03 6.013098e-02 0.000000e+00  5.792145e-04 5.662344e-02 0.000000e+00  9.613768e-03 1.077164e-01 0.000000e+00  -6.414848e-03 1.221619e-01 0.000000e+00  -1.724014e-03 1.185049e-01 0.000000e+00  1.189127e-02 1.092389e-01 0.000000e+00  -6.236602e-03 1.311869e-01 0.000000e+00  4.066195e-05 1.118995e-02 0.000000e+00  1.584457e-03 7.349887e-02 0.000000e+00  1.924031e-03 3.645732e-02 0.000000e+00  1.040494e-02 6.005053e-02 0.000000e+00  -8.874282e-03 1.376338e-01 0.000000e+00  5.458971e-03 1.134809e-01 0.000000e+00  5.841957e-03 1.008304e-01 0.000000e+00  -6.530446e-03 1.291349e-01 0.000000e+00  7.695288e-03 1.088293e-01 0.000000e+00  2.712070e-02 1.766899e-01 0.000000e+00  7.003587e-03 1.104403e-01 0.000000e+00  7.096746e-03 1.787571e-01 0.000000e+00  -7.442746e-04 1.673107e-01 0.000000e+00  -2.007504e-02 2.130477e-01 0.000000e+00  -8.001686e-03 1.944093e-01 0.000000e+00  -2.672723e-02 2.175132e-01 0.000000e+00  2.964200e-02 1.640247e-01 0.000000e+00  -1.202478e-02 1.979270e-01 0.000000e+00  3.106287e-02 1.746060e-01 0.000000e+00  -1.528222e-02 2.065411e-01 0.000000e+00  -2.683266e-02 2.169468e-01 0.000000e+00  -2.298573e-02 2.161956e-01 0.000000e+00  7.645462e-03 1.115197e-01 0.000000e+00  7.012940e-03 1.121999e-01 0.000000e+00  7.535354e-03 1.121410e-01 0.000000e+00  1.896629e-03 8.071411e-02 0.000000e+00  1.577499e-03 7.950180e-02 0.000000e+00  1.686125e-03 8.022041e-02 0.000000e+00  1.044032e-02 1.211138e-01 0.000000e+00  3.058201e-03 3.468535e-02 0.000000e+00  2.282337e-04 1.167806e-01 0.000000e+00  -4.250986e-04 1.663240e-02 0.000000e+00  -4.390158e-03 1.207981e-01 0.000000e+00  3.207491e-03 7.862168e-02 0.000000e+00  2.670856e-03 2.085078e-02 0.000000e+00  1.325541e-02 7.012816e-02 0.000000e+00  8.424302e-03 1.037955e-01 0.000000e+00  8.523311e-03 1.118862e-01 0.000000e+00  9.150282e-03 1.060724e-01 0.000000e+00  1.129657e-02 1.101576e-01 0.000000e+00  -5.613074e-05 1.790253e-02 0.000000e+00  2.979168e-05 1.206904e-01 0.000000e+00  1.115337e-02 1.082354e-01 0.000000e+00  3.362858e-03 8.444469e-02 0.000000e+00  8.397996e-04 2.690356e-02 0.000000e+00  3.124728e-03 7.771457e-02 0.000000e+00  -7.984546e-03 1.255336e-01 0.000000e+00  4.059254e-04 3.822318e-02 0.000000e+00  7.953040e-04 4.362988e-02 0.000000e+00  5.721017e-03 9.499876e-02 0.000000e+00  4.530812e-03 1.115083e-01 0.000000e+00  1.675295e-03 4.869478e-02 0.000000e+00  1.970633e-02 1.475215e-01 0.000000e+00  7.971542e-03 1.092472e-01 0.000000e+00  -6.839474e-03 1.265908e-01 0.000000e+00  -8.459096e-03 1.326445e-01 0.000000e+00  2.217804e-02 1.098069e-01 0.000000e+00  1.016693e-02 1.071883e-01 0.000000e+00  -5.675578e-03 1.199658e-01 0.000000e+00  5.841668e-03 4.979944e-02 0.000000e+00  1.177043e-03 6.624118e-02 0.000000e+00  -1.844001e-03 1.158369e-01 0.000000e+00  -4.056867e-03 1.192897e-01 0.000000e+00  8.471712e-04 5.494921e-02 0.000000e+00  4.488590e-04 6.432763e-02 0.000000e+00  5.188624e-04 5.336116e-02 0.000000e+00  -5.020032e-03 1.295715e-01 0.000000e+00  9.715242e-04 3.539038e-02 0.000000e+00  -7.070781e-03 1.299457e-01 0.000000e+00  8.281235e-03 1.071090e-01 0.000000e+00  -7.477605e-03 1.232254e-01 0.000000e+00  1.380384e-03 7.529646e-02 0.000000e+00  -1.142795e-02 1.374041e-01 0.000000e+00  4.031434e-03 9.571209e-02 0.000000e+00  2.720949e-02 1.481869e-01 0.000000e+00  7.673751e-03 1.098790e-01 0.000000e+00  1.662213e-03 1.740171e-01 0.000000e+00  -9.704244e-03 1.889638e-01 0.000000e+00  6.084825e-03 1.093214e-01 0.000000e+00  -1.947129e-03 1.923482e-01 0.000000e+00  -6.039563e-03 1.773419e-01 0.000000e+00  -1.763750e-02 2.100629e-01 0.000000e+00  5.873544e-03 1.877408e-01 0.000000e+00  -1.531909e-02 2.097135e-01 0.000000e+00  6.658533e-03 1.116802e-01 0.000000e+00  -2.345622e-02 2.151929e-01 0.000000e+00  -2.732762e-02 2.174102e-01 0.000000e+00  -2.031591e-02 2.144340e-01 0.000000e+00  -2.524704e-02 2.171282e-01 0.000000e+00  -1.361224e-02 2.030475e-01 0.000000e+00  -2.581514e-02 2.163196e-01 0.000000e+00  -2.719433e-02 2.178430e-01 0.000000e+00  2.263593e-03 8.151534e-02 0.000000e+00  1.761148e-03 8.049971e-02 0.000000e+00  1.486925e-03 7.901314e-02 0.000000e+00  1.636347e-03 7.995217e-02 0.000000e+00  -5.499840e-03 1.225284e-01 0.000000e+00  1.964647e-03 2.203809e-02 0.000000e+00  6.090536e-03 7.728594e-02 0.000000e+00  2.670838e-04 1.360987e-01 0.000000e+00  6.645915e-03 4.351248e-02 0.000000e+00  1.342918e-04 3.259655e-02 0.000000e+00  6.047953e-03 4.768009e-02 0.000000e+00  1.064843e-02 1.094811e-01 0.000000e+00  2.376946e-03 1.040820e-01 0.000000e+00  8.503930e-03 1.013639e-01 0.000000e+00  1.508980e-02 8.832884e-02 0.000000e+00  -4.567130e-04 1.057606e-02 0.000000e+00  1.194296e-02 1.395717e-01 0.000000e+00  2.161443e-03 6.794791e-02 0.000000e+00  -3.421593e-03 1.283323e-01 0.000000e+00  -6.098563e-03 1.224528e-01 0.000000e+00  4.834493e-03 9.508092e-02 0.000000e+00  -2.091155e-03 1.178060e-01 0.000000e+00  4.058216e-03 8.459528e-02 0.000000e+00  9.417226e-03 1.058919e-01 0.000000e+00  1.004883e-02 1.072131e-01 0.000000e+00  7.046099e-03 1.004491e-01 0.000000e+00  1.832756e-03 3.156999e-02 0.000000e+00  -3.718325e-03 1.198794e-01 0.000000e+00  5.273100e-05 1.637818e-02 0.000000e+00  -3.128617e-03 1.197268e-01 0.000000e+00  3.015682e-03 7.920544e-02 0.000000e+00  9.155405e-04 1.788086e-02 0.000000e+00  2.880672e-04 2.090138e-02 0.000000e+00  -9.390724e-03 1.287700e-01 0.000000e+00  4.377460e-04 3.304790e-02 0.000000e+00  1.017923e-02 1.110009e-01 0.000000e+00  1.531519e-02 7.650737e-02 0.000000e+00  8.573104e-03 1.046492e-01 0.000000e+00  8.078769e-03 1.052991e-01 0.000000e+00  5.797709e-03 1.102181e-01 0.000000e+00  1.533777e-04 1.159356e-01 0.000000e+00  -3.064201e-05 9.589955e-03 0.000000e+00  3.001411e-03 8.216297e-02 0.000000e+00  5.896585e-03 1.120466e-01 0.000000e+00  1.407612e-03 5.647537e-02 0.000000e+00  4.967537e-04 4.725071e-02 0.000000e+00  -2.371883e-04 2.507744e-02 0.000000e+00  1.917978e-03 1.133782e-01 0.000000e+00  -6.431643e-03 1.257955e-01 0.000000e+00  1.999942e-03 2.153738e-02 0.000000e+00  2.358803e-02 1.324571e-01 0.000000e+00  -7.783826e-04 8.453980e-03 0.000000e+00  3.646354e-03 8.896241e-02 0.000000e+00  1.247310e-03 6.290610e-02 0.000000e+00  -7.210197e-03 1.256109e-01 0.000000e+00  -7.896095e-03 1.242570e-01 0.000000e+00  1.022627e-03 3.902037e-02 0.000000e+00  8.517295e-03 1.084391e-01 0.000000e+00  1.086897e-02 6.325096e-02 0.000000e+00  9.884572e-03 1.074275e-01 0.000000e+00  4.800555e-03 4.202672e-02 0.000000e+00  8.444969e-04 4.981152e-02 0.000000e+00  -6.009511e-03 1.209924e-01 0.000000e+00  4.246712e-03 4.526225e-02 0.000000e+00  -6.738838e-03 1.328549e-01 0.000000e+00  -9.888282e-03 1.340277e-01 0.000000e+00  1.879545e-02 8.884552e-02 0.000000e+00  -4.593887e-03 1.179756e-01 0.000000e+00  1.813171e-03 7.203513e-02 0.000000e+00  -7.991057e-03 1.309433e-01 0.000000e+00  -6.137956e-03 1.299941e-01 0.000000e+00  -7.034632e-03 1.283014e-01 0.000000e+00  1.836059e-02 1.652285e-01 0.000000e+00  -6.898178e-03 1.214442e-01 0.000000e+00  -5.345174e-04 1.140069e-01 0.000000e+00  8.351594e-04 6.972514e-02 0.000000e+00  9.199645e-04 6.745872e-02 0.000000e+00  3.024947e-04 5.898371e-02 0.000000e+00  8.036861e-04 4.804295e-02 0.000000e+00  7.314606e-03 1.076428e-01 0.000000e+00  4.850137e-03 1.013776e-01 0.000000e+00  -1.133176e-02 1.411153e-01 0.000000e+00  6.620578e-04 7.215928e-02 0.000000e+00  -8.207559e-03 1.238849e-01 0.000000e+00  1.750101e-03 7.819634e-02 0.000000e+00  2.687857e-02 1.588336e-01 0.000000e+00  -1.239595e-02 1.353780e-01 0.000000e+00  2.593211e-02 1.367707e-01 0.000000e+00  7.739736e-03 1.094653e-01 0.000000e+00  1.134814e-03 1.832985e-01 0.000000e+00  -6.088752e-03 1.699485e-01 0.000000e+00  6.089068e-03 1.109238e-01 0.000000e+00  -1.053488e-02 1.962337e-01 0.000000e+00  7.521377e-03 1.107998e-01 0.000000e+00  -8.381695e-03 2.025743e-01 0.000000e+00  -9.694635e-03 1.826841e-01 0.000000e+00  -1.393415e-02 2.104591e-01 0.000000e+00  -2.643105e-02 2.176288e-01 0.000000e+00  -1.464382e-02 2.052008e-01 0.000000e+00  -2.743981e-02 2.177652e-01 0.000000e+00  6.626849e-03 1.121526e-01 0.000000e+00  2.145127e-03 8.177933e-02 0.000000e+00  1.407486e-03 7.839355e-02 0.000000e+00  1.661351e-03 1.246558e-01 0.000000e+00  5.080704e-03 5.384295e-02 0.000000e+00  1.585530e-02 1.143571e-01 0.000000e+00  1.104408e-02 1.083932e-01 0.000000e+00  2.476675e-04 2.321831e-02 0.000000e+00  1.288281e-02 1.007909e-01 0.000000e+00  -5.213828e-03 1.216198e-01 0.000000e+00  -1.722736e-03 1.231933e-01 0.000000e+00  1.015320e-02 6.158117e-02 0.000000e+00  2.330672e-03 1.991932e-02 0.000000e+00  5.011001e-03 9.549133e-02 0.000000e+00  3.806606e-04 3.718195e-02 0.000000e+00  2.750150e-03 7.270737e-02 0.000000e+00  -2.051072e-04 1.392420e-02 0.000000e+00  1.020417e-02 1.086047e-01 0.000000e+00  2.603845e-03 1.150126e-01 0.000000e+00  1.008256e-04 1.063478e-02 0.000000e+00  -1.236255e-04 5.961737e-03 0.000000e+00  -6.381873e-03 1.247189e-01 0.000000e+00  1.132950e-02 1.092311e-01 0.000000e+00  3.940025e-03 3.152236e-02 0.000000e+00  1.060736e-02 5.891261e-02 0.000000e+00  1.708139e-03 1.155175e-02 0.000000e+00  8.590023e-03 5.060960e-02 0.000000e+00  1.714532e-02 8.786204e-02 0.000000e+00  3.956150e-03 8.964141e-02 0.000000e+00  -2.303345e-03 1.184605e-01 0.000000e+00  3.473096e-03 1.435238e-01 0.000000e+00  3.810289e-05 2.565634e-02 0.000000e+00  2.403110e-04 3.213111e-02 0.000000e+00  9.407270e-03 1.094769e-01 0.000000e+00  2.129789e-03 1.124093e-01 0.000000e+00  7.369626e-03 1.104364e-01 0.000000e+00  -5.376441e-03 1.210656e-01 0.000000e+00  1.849648e-03 6.798903e-02 0.000000e+00  7.936921e-03 1.042390e-01 0.000000e+00  2.755832e-03 7.982266e-02 0.000000e+00  1.383598e-02 1.536817e-01 0.000000e+00  7.643688e-03 1.087665e-01 0.000000e+00  1.603842e-03 2.970140e-02 0.000000e+00  4.160454e-04 4.403965e-02 0.000000e+00  5.913394e-05 3.145831e-02 0.000000e+00  -7.635659e-03 1.344553e-01 0.000000e+00  1.179055e-03 2.292817e-02 0.000000e+00  7.256685e-05 1.151957e-01 0.000000e+00  5.814333e-03 9.740096e-02 0.000000e+00  -6.986033e-03 1.241260e-01 0.000000e+00  -3.858701e-03 1.369314e-01 0.000000e+00  -8.131184e-03 1.273919e-01 0.000000e+00  2.465132e-02 1.260932e-01 0.000000e+00  -7.105297e-03 1.236926e-01 0.000000e+00  1.387773e-02 7.154882e-02 0.000000e+00  2.109079e-02 1.279823e-01 0.000000e+00  -4.841432e-03 1.315435e-01 0.000000e+00  8.029962e-04 5.905641e-02 0.000000e+00  5.643951e-04 5.150563e-02 0.000000e+00  2.363933e-02 1.537652e-01 0.000000e+00  3.453922e-03 8.573613e-02 0.000000e+00  5.780806e-03 9.910448e-02 0.000000e+00  -4.338649e-04 1.967660e-02 0.000000e+00  -4.671863e-03 1.193817e-01 0.000000e+00  7.639726e-03 5.397044e-02 0.000000e+00  2.455995e-03 4.058086e-02 0.000000e+00  6.958837e-03 1.051873e-01 0.000000e+00  -3.925100e-03 1.180444e-01 0.000000e+00  3.600037e-03 4.284245e-02 0.000000e+00  7.536979e-03 5.321099e-02 0.000000e+00  -7.398938e-03 1.226230e-01 0.000000e+00  -9.221379e-03 1.263266e-01 0.000000e+00  2.281581e-03 7.867657e-02 0.000000e+00  -9.537113e-03 1.317488e-01 0.000000e+00  -6.435905e-03 1.202956e-01 0.000000e+00  8.925596e-03 1.060849e-01 0.000000e+00  7.539443e-04 4.270746e-02 0.000000e+00  6.811127e-04 6.198309e-02 0.000000e+00  -8.813973e-03 1.293105e-01 0.000000e+00  8.206788e-03 1.080919e-01 0.000000e+00  4.607867e-04 5.798131e-02 0.000000e+00  -7.413620e-03 1.320468e-01 0.000000e+00  4.478986e-03 1.100816e-01 0.000000e+00  -2.888628e-03 1.159352e-01 0.000000e+00  1.432739e-04 6.490818e-02 0.000000e+00  5.813229e-04 4.892152e-02 0.000000e+00  -1.156636e-02 1.339716e-01 0.000000e+00  3.184879e-03 8.437080e-02 0.000000e+00  8.744104e-03 1.067292e-01 0.000000e+00  3.666510e-03 9.248791e-02 0.000000e+00  6.662080e-03 5.020706e-02 0.000000e+00  1.626310e-02 7.854436e-02 0.000000e+00  2.014632e-02 1.776563e-01 0.000000e+00  -9.548473e-03 1.403684e-01 0.000000e+00  4.929087e-04 5.