<?xml version="1.0"?>
<VTKFile type="UnstructuredGrid"  version="0.1"  >
<UnstructuredGrid>
<Piece  NumberOfPoints="2868" NumberOfCells="5400">
<Points>
<DataArray  type="Float32"  NumberOfComponents="3"  format="ascii">0.534923 0.326073 0  0.510642 0.314196 0  0.466125 0.293082 0  0.436448 0.281205 0  0.409468 0.275927 0  0.368998 0.270648 0  0.35281 0.275927 0  0.381139 0.302319 0  0.405421 0.326073 0  0.410817 0.33531 0  0.408119 0.349826 0  0.400025 0.357744 0  0.375743 0.368301 0  0.329878 0.392055 0  0.297502 0.432963 0  0.282663 0.476511 0  0.285361 0.524018 0  0.298851 0.572845 0  0.317737 0.604516 0  0.337972 0.636187 0  0.360904 0.674457 0  0.368998 0.69953 0  0.359555 0.721964 0  0.360904 0.757594 0  0.370347 0.766831 0  0.381139 0.762872 0  0.390582 0.741758 0  0.404072 0.720644 0  0.424307 0.707448 0  0.447239 0.702169 0  0.480964 0.704808 0  0.479615 0.688973 0  0.468823 0.675776 0  0.447239 0.669178 0  0.428354 0.669178 0  0.410817 0.6639 0  0.404072 0.653343 0  0.395978 0.628269 0  0.387884 0.59132 0  0.389233 0.576804 0  0.397327 0.557009 0  0.410817 0.547772 0  0.424307 0.546452 0  0.437797 0.55305 0  0.44589 0.566247 0  0.441843 0.582082 0  0.439145 0.597918 0  0.449937 0.609795 0  0.468823 0.603196 0  0.479615 0.59 0  0.489058 0.570205 0  0.494454 0.546452 0  0.505246 0.522699 0  0.522783 0.509502 0  0.55246 0.494986 0  0.586185 0.484429 0  0.615863 0.48047 0  0.64554 0.473872 0  0.667124 0.461995 0  0.683312 0.451438 0  0.696802 0.435603 0  0.703547 0.417128 0  0.71164 0.393374 0  0.718385 0.37226 0  0.72513 0.364342 0  0.739969 0.353785 0  0.745365 0.344548 0  0.745365 0.327393 0  0.737271 0.318155 0  0.718385 0.316835 0  0.700849 0.319475 0  0.677916 0.318155 0  0.650936 0.316835 0  0.610467 0.318155 0  0.57944 0.324753 0  0.559205 0.328712 0  0.53897 0.326073 0  1 1 0  1 0 0  0 0 0  0 1 0  0.532238 0.32476 0  0.528748 0.323052 0  0.52421 0.320833 0  0.518311 0.317947 0  0.503447 0.310783 0  0.494093 0.306347 0  0.481933 0.30058 0  0.452151 0.28749 0  0.392327 0.273691 0  0.379141 0.271971 0  0.360474 0.283066 0  0.369797 0.291752 0  0.391424 0.31238 0  0.399335 0.32012 0  0.40958 0.341964 0  0.393939 0.36039 0  0.386028 0.36383 0  0.364248 0.374254 0  0.349304 0.381994 0  0.315801 0.409841 0  0.292986 0.551616 0  0.350934 0.657818 0  0.360127 0.737055 0  0.360566 0.748664 0  0.385245 0.753692 0  0.396447 0.732578 0  0.466301 0.703661 0  0.459439 0.672908 0  0.418442 0.666195 0  0.400553 0.642441 0  0.39255 0.612619 0  0.389913 0.60058 0  0.392752 0.568197 0  0.444131 0.573132 0  0.458149 0.606926 0  0.500554 0.533026 0  0.571522 0.489019 0  0.632637 0.476741 0  0.689177 0.444553 0  0.708121 0.403702 0  0.715453 0.38144 0  0.732406 0.359166 0  0.745365 0.337089 0  0.72906 0.317581 0  0.629879 0.317522 0  0.59293 0.321884 0  0.568003 0.326991 0  0.55202 0.327775 0  0.546493 0.327054 0  0.542241 0.326499 0  1 0.9 0  1 0.8 0  1 0.7 0  1 0.6 0  1 0.5 0  1 0.4 0  1 0.3 0  1 0.2 0  1 0.1 0  0.9 0 0  0.8 0 0  0.7 0 0  0.6 0 0  0.5 0 0  0.4 0 0  0.3 0 0  0.2 0 0  0.1 0 0  0.1 1 0  0.2 1 0  0.3 1 0  0.4 1 0  0.5 1 0  0.6 1 0  0.7 1 0  0.8 1 0  0.9 1 0  0 0.1 0  0 0.2 0  0 0.3 0  0 0.4 0  0 0.5 0  0 0.6 0  0 0.7 0  0 0.8 0  0 0.9 0  0.535686 0.503191 0  0.753987 0.733359 0  0.167145 0.741436 0  0.173378 0.257204 0  0.733497 0.159862 0  0.554096 0.15788 0  0.849187 0.479053 0  0.488793 0.838452 0  0.138507 0.5592 0  0.30686 0.154944 0  0.348904 0.890523 0  0.058006 0.065099 0  0.069849 0.937917 0  0.93633 0.939704 0  0.934625 0.053613 0  0.343397 0.333452 0  0.473272 0.639943 0  0.433266 0.638072 0  0.415174 0.58269 0  0.533435 0.545042 0  0.390848 0.340652 0  0.53655 0.320242 0  0.127966 0.393775 0  0.83861 0.850455 0  0.635242 0.85513 0  0.852158 0.633441 0  0.653427 0.626848 0  0.861226 0.24292 0  0.166128 0.12976 0  0.216875 0.869871 0  0.458305 0.11179 0  0.84446 0.101633 0  0.202024 0.642528 0  0.644825 0.115855 0  0.671342 0.218358 0  0.251354 0.286186 0  0.262388 0.75153 0  0.063044 0.751571 0  0.068189 0.242962 0  0.435781 0.905395 0  0.934144 0.451133 0  0.568393 0.237622 0  0.814984 0.395506 0  0.752951 0.517227 0  0.456254 0.780699 0  0.073352 0.531116 0  0.337731 0.206071 0  0.363213 0.960371 0  0.330742 0.363592 0  0.516613 0.55705 0  0.369057 0.332992 0  0.500926 0.617309 0  0.498004 0.665534 0  0.412142 0.61178 0  0.454233 0.636604 0  0.422782 0.567496 0  0.541193 0.52148 0  0.439761 0.65557 0  0.5163 0.533672 0  0.414775 0.64562 0  0.40073 0.576135 0  0.430362 0.588034 0  0.385432 0.351492 0  0.400298 0.335397 0  0.398325 0.348194 0  0.528702 0.314885 0  0.540814 0.322334 0  0.534477 0.322953 0  0.619095 0.743583 0  0.885162 0.737972 0  0.08076 0.668849 0  0.90734 0.36634 0  0.094687 0.868937 0  0.759838 0.912152 0  0.901518 0.540898 0  0.747285 0.607479 0  0.229182 0.071641 0  0.069154 0.450091 0  0.244775 0.203309 0  0.076534 0.331755 0  0.897847 0.167826 0  0.578909 0.911415 0  0.077133 0.146341 0  0.477215 0.203448 0  0.922631 0.869341 0  0.517415 0.074785 0  0.297026 0.827793 0  0.783271 0.246505 0  0.74519 0.061079 0  0.36033 0.069068 0  0.210313 0.475228 0  0.859426 0.928758 0  0.574548 0.609182 0  0.243069 0.383398 0  0.283099 0.934598 0  0.417416 0.843141 0  0.643942 0.553164 0  0.112687 0.079336 0  0.281357 0.658386 0  0.765043 0.436177 0  0.611361 0.198486 0  0.234496 0.58911 0  0.206479 0.702638 0  0.679608 0.155818 0  0.62682 0.259978 0  0.690538 0.264164 0  0.448938 0.956308 0  0.808154 0.328403 0  0.379583 0.91913 0  0.308083 0.297769 0  0.312358 0.730249 0  0.563101 0.278576 0  0.435597 0.746198 0  0.385475 0.225229 0  0.572248 0.518034 0  0.357864 0.35422 0  0.497647 0.641694 0  0.458101 0.655768 0  0.360474 0.310727 0  0.467038 0.620139 0  0.47798 0.659909 0  0.41102 0.628072 0  0.48324 0.609015 0  0.427544 0.617941 0  0.388633 0.328253 0  0.405336 0.599404 0  0.408351 0.565178 0  0.42395 0.600985 0  0.431562 0.576523 0  0.424905 0.655198 0  0.398064 0.58782 0  0.427739 0.557934 0  0.519291 0.303443 0  0.53142 0.320293 0  0.5449 0.323642 0  0.537166 0.323513 0  0.153974 0.920841 0  0.918186 0.67343 0  0.759946 0.820588 0  0.537526 0.783091 0  0.816532 0.545843 0  0.813991 0.178083 0  0.836774 0.702023 0  0.149815 0.318856 0  0.662287 0.923338 0  0.680146 0.791192 0  0.708961 0.663172 0  0.937278 0.287318 0  0.574622 0.688166 0  0.589474 0.076262 0  0.502822 0.926683 0  0.222269 0.811068 0  0.380457 0.164786 0  0.15321 0.684154 0  0.458063 0.051413 0  0.161702 0.056026 0  0.199351 0.198818 0  0.298946 0.095532 0  0.902465 0.795949 0  0.121139 0.791477 0  0.906269 0.112287 0  0.056109 0.822332 0  0.512172 0.13237 0  0.940964 0.741805 0  0.888887 0.408777 0  0.354543 0.825964 0  0.808736 0.068638 0  0.068507 0.394071 0  0.719105 0.563843 0  0.247287 0.149664 0  0.293062 0.237128 0  0.240524 0.434997 0  0.141255 0.623289 0  0.945202 0.160621 0  0.502914 0.247629 0  0.144669 0.480811 0  0.665025 0.060817 0  0.728047 0.224344 0  0.861995 0.313312 0  0.200068 0.534235 0  0.253262 0.965623 0  0.893804 0.49307 0  0.604391 0.572456 0  0.947088 0.345347 0  0.439372 0.227307 0  0.629847 0.159823 0  0.273405 0.880181 0  0.302744 0.776823 0  0.781502 0.295365 0  0.275342 0.349602 0  0.728385 0.472798 0  0.229136 0.246478 0  0.807794 0.480346 0  0.709476 0.112786 0  0.275506 0.694991 0  0.771674 0.394419 0  0.449715 0.861802 0  0.419159 0.799696 0  0.674851 0.503139 0  0.280443 0.61016 0  0.572443 0.192538 0  0.393113 0.87525 0  0.405555 0.948428 0  0.330942 0.934103 0  0.540509 0.597101 0  0.312763 0.668931 0  0.254368 0.540179 0  0.595265 0.25915 0  0.606679 0.234099 0  0.657131 0.279138 0  0.722458 0.279478 0  0.333 0.308056 0  0.351529 0.246142 0  0.455714 0.725794 0  0.585239 0.295143 0  0.340062 0.72492 0  0.545593 0.293773 0  0.555449 0.545426 0  0.414311 0.737314 0  0.590854 0.502323 0  0.350507 0.368444 0  0.484423 0.625665 0  0.483899 0.674542 0  0.378137 0.317274 0  0.446416 0.646404 0  0.373532 0.347654 0  0.446876 0.619769 0  0.466106 0.666068 0  0.437545 0.609254 0  0.434988 0.565726 0  0.41462 0.656829 0  0.418803 0.556961 0  0.398425 0.327446 0  0.517803 0.310421 0  0.549516 0.322918 0  0.57701 0.842889 0  0.829127 0.773906 0  0.643235 0.684732 0  0.134281 0.207734 0  0.865997 0.055966 0  0.680959 0.723345 0  0.165229 0.841555 0  0.54558 0.959672 0  0.783726 0.656439 0  0.913315 0.595533 0  0.699439 0.860667 0  0.785839 0.125076 0  0.551673 0.037713 0  0.920097 0.223214 0  0.206406 0.299726 0  0.087064 0.596401 0  0.935644 0.394252 0  0.964557 0.252582 0  0.230124 0.928346 0  0.120579 0.271764 0  0.857215 0.524082 0  0.767098 0.555147 0  0.936094 0.507131 0  0.804064 0.59585 0  0.700565 0.608273 0  0.429773 0.174231 0  0.117746 0.727333 0  0.538962 0.730231 0  0.862761 0.359173 0  0.821444 0.284046 0  0.193552 0.35818 0  0.234923 0.505555 0  0.193209 0.421217 0  0.220144 0.755896 0  0.594015 0.131642 0  0.283813 0.195855 0  0.517519 0.213961 0  0.553509 0.639116 0  0.280391 0.378018 0  0.852183 0.436817 0  0.746983 0.197173 0  0.821806 0.221318 0  0.449853 0.828453 0  0.883758 0.453926 0  0.183484 0.589542 0  0.348384 0.129314 0  0.255254 0.838525 0  0.504849 0.798516 0  0.320344 0.863432 0  0.611669 0.525425 0  0.265864 0.804962 0  0.72056 0.521442 0  0.613372 0.610122 0  0.481262 0.881068 0  0.655778 0.191988 0  0.701921 0.196918 0  0.565826 0.573181 0  0.46914 0.240927 0  0.343219 0.173284 0  0.888786 0.278502 0  0.244113 0.675093 0  0.739546 0.417914 0  0.784023 0.355942 0  0.326805 0.265549 0  0.248616 0.634948 0  0.789183 0.413964 0  0.764107 0.476606 0  0.32086 0.698956 0  0.334735 0.791464 0  0.53448 0.258468 0  0.395208 0.824575 0  0.309962 0.638947 0  0.263264 0.22712 0  0.756395 0.267254 0  0.639281 0.224663 0  0.358631 0.85116 0  0.309751 0.332089 0  0.663461 0.246436 0  0.424083 0.871774 0  0.269645 0.445719 0  0.272183 0.572741 0  0.624492 0.294638 0  0.717827 0.250266 0  0.408215 0.763744 0  0.485997 0.274924 0  0.288138 0.274311 0  0.410524 0.242487 0  0.741513 0.385737 0  0.691284 0.483519 0  0.515531 0.581849 0  0.463005 0.753402 0  0.681919 0.
[...]
<PointData  Vectors="u"> 
<DataArray  type="Float32"  Name="u"  NumberOfComponents="3" format="ascii">6.563071e-02 3.409260e+00 0.000000e+00  9.174056e-02 3.505011e+00 0.000000e+00  1.471756e-01 3.656800e+00 0.000000e+00  1.682795e-01 3.772802e+00 0.000000e+00  1.799796e-01 3.900362e+00 0.000000e+00  1.896800e-01 4.159953e+00 0.000000e+00  2.347440e-01 4.386886e+00 0.000000e+00  2.831646e-01 4.660255e+00 0.000000e+00  3.546767e-01 4.718919e+00 0.000000e+00  3.746764e-01 4.718946e+00 0.000000e+00  4.002000e-01 4.718615e+00 0.000000e+00  4.096320e-01 4.711821e+00 0.000000e+00  4.167063e-01 4.647818e+00 0.000000e+00  3.766956e-01 4.524902e+00 0.000000e+00  2.698855e-01 4.519885e+00 0.000000e+00  1.462538e-01 4.579624e+00 0.000000e+00  1.039496e-02 4.674146e+00 0.000000e+00  -1.190197e-01 4.790796e+00 0.000000e+00  -1.955573e-01 4.882136e+00 0.000000e+00  -2.470190e-01 4.959232e+00 0.000000e+00  -2.788884e-01 5.020553e+00 0.000000e+00  -2.879825e-01 5.037239e+00 0.000000e+00  -2.969958e-01 5.052688e+00 0.000000e+00  -3.499855e-01 5.121677e+00 0.000000e+00  -3.980803e-01 5.196026e+00 0.000000e+00  -4.399046e-01 5.276619e+00 0.000000e+00  -4.745201e-01 5.367878e+00 0.000000e+00  -4.649537e-01 5.437607e+00 0.000000e+00  -4.409895e-01 5.519367e+00 0.000000e+00  -4.171677e-01 5.631282e+00 0.000000e+00  -3.680836e-01 6.076634e+00 0.000000e+00  -3.597146e-01 6.584862e+00 0.000000e+00  -3.425032e-01 7.079210e+00 0.000000e+00  -3.641514e-01 7.593341e+00 0.000000e+00  -4.026882e-01 7.862327e+00 0.000000e+00  -4.548609e-01 8.013713e+00 0.000000e+00  -5.030819e-01 8.077671e+00 0.000000e+00  -6.365363e-01 8.231762e+00 0.000000e+00  -8.313948e-01 8.391938e+00 0.000000e+00  -8.668831e-01 8.412587e+00 0.000000e+00  -8.850141e-01 8.431913e+00 0.000000e+00  -8.821859e-01 8.445850e+00 0.000000e+00  -8.779202e-01 8.455661e+00 0.000000e+00  -8.661983e-01 8.456020e+00 0.000000e+00  -8.298669e-01 8.443446e+00 0.000000e+00  -7.412989e-01 8.421811e+00 0.000000e+00  -5.502759e-01 8.326653e+00 0.000000e+00  -1.801070e-01 8.041612e+00 0.000000e+00  3.015456e-01 7.712260e+00 0.000000e+00  6.929870e-01 7.515110e+00 0.000000e+00  1.059122e+00 7.309891e+00 0.000000e+00  1.276798e+00 7.120689e+00 0.000000e+00  1.306872e+00 6.938777e+00 0.000000e+00  1.254614e+00 6.706935e+00 0.000000e+00  1.137761e+00 6.164692e+00 0.000000e+00  1.014657e+00 5.456407e+00 0.000000e+00  9.462978e-01 4.779498e+00 0.000000e+00  8.629601e-01 4.032313e+00 0.000000e+00  7.625651e-01 3.474333e+00 0.000000e+00  6.804927e-01 3.067594e+00 0.000000e+00  5.828554e-01 2.685987e+00 0.000000e+00  4.969568e-01 2.438197e+00 0.000000e+00  3.915963e-01 2.224651e+00 0.000000e+00  3.087661e-01 2.098801e+00 0.000000e+00  2.738730e-01 2.045900e+00 0.000000e+00  2.087478e-01 1.911481e+00 0.000000e+00  1.598101e-01 1.832158e+00 0.000000e+00  8.389585e-02 1.796275e+00 0.000000e+00  3.918627e-02 1.857980e+00 0.000000e+00  1.500522e-02 2.010715e+00 0.000000e+00  1.032037e-02 2.139877e+00 0.000000e+00  -1.337178e-03 2.305256e+00 0.000000e+00  -1.328360e-02 2.519287e+00 0.000000e+00  -1.286692e-02 2.866784e+00 0.000000e+00  1.781225e-02 3.135628e+00 0.000000e+00  4.407597e-02 3.279891e+00 0.000000e+00  6.205251e-02 3.391866e+00 0.000000e+00  0.000000e+00 0.000000e+00 0.000000e+00  0.000000e+00 0.000000e+00 0.000000e+00  4.673479e-01 4.466026e+00 0.000000e+00  -1.601488e-01 4.953031e+00 0.000000e+00  6.677941e-02 3.419257e+00 0.000000e+00  6.956674e-02 3.433577e+00 0.000000e+00  7.425479e-02 3.452211e+00 0.000000e+00  8.140287e-02 3.475759e+00 0.000000e+00  1.017867e-01 3.531017e+00 0.000000e+00  1.146104e-01 3.563070e+00 0.000000e+00  1.300317e-01 3.603199e+00 0.000000e+00  1.585789e-01 3.707728e+00 0.000000e+00  1.847810e-01 3.993070e+00 0.000000e+00  1.871990e-01 4.076136e+00 0.000000e+00  2.346049e-01 4.529404e+00 0.000000e+00  2.544197e-01 4.601873e+00 0.000000e+00  3.135060e-01 4.696306e+00 0.000000e+00  3.378726e-01 4.713388e+00 0.000000e+00  3.869273e-01 4.718917e+00 0.000000e+00  4.123982e-01 4.700973e+00 0.000000e+00  4.153248e-01 4.680258e+00 0.000000e+00  4.141256e-01 4.610114e+00 0.000000e+00  4.037926e-01 4.566135e+00 0.000000e+00  3.344714e-01 4.511006e+00 0.000000e+00  -6.565686e-02 4.738562e+00 0.000000e+00  -2.680589e-01 4.998704e+00 0.000000e+00  -3.141638e-01 5.074171e+00 0.000000e+00  -3.313371e-01 5.094724e+00 0.000000e+00  -4.656866e-01 5.325964e+00 0.000000e+00  -4.734604e-01 5.399942e+00 0.000000e+00  -4.018208e-01 5.774893e+00 0.000000e+00  -3.409429e-01 7.339172e+00 0.000000e+00  -4.328310e-01 7.959551e+00 0.000000e+00  -5.556527e-01 8.141021e+00 0.000000e+00  -7.287944e-01 8.316932e+00 0.000000e+00  -7.940235e-01 8.367491e+00 0.000000e+00  -8.786729e-01 8.421914e+00 0.000000e+00  -8.022265e-01 8.439009e+00 0.000000e+00  4.457071e-02 7.904465e+00 0.000000e+00  1.311996e+00 7.014781e+00 0.000000e+00  1.067147e+00 5.771300e+00 0.000000e+00  9.001502e-01 4.365485e+00 0.000000e+00  6.405568e-01 2.895268e+00 0.000000e+00  4.364660e-01 2.308622e+00 0.000000e+00  3.427339e-01 2.144670e+00 0.000000e+00  2.442888e-01 1.987707e+00 0.000000e+00  1.270882e-01 1.803063e+00 0.000000e+00  2.572421e-02 1.925931e+00 0.000000e+00  -1.558159e-02 2.695881e+00 0.000000e+00  2.012249e-03 3.023858e+00 0.000000e+00  3.290001e-02 3.222663e+00 0.000000e+00  4.936010e-02 3.320472e+00 0.000000e+00  5.442836e-02 3.351970e+00 0.000000e+00  5.862925e-02 3.374976e+00 0.000000e+00  0.000000e+00 0.000000e+00 0.000000e+00  0.000000e+00 0.000000e+00 0.000000e+00  0.000000e+00 0.000000e+00 0.000000e+00  0.000000e+00 0.000000e+00 0.000000e+00  0.000000e+00 0.000000e+00 0.000000e+00  0.000000e+00 0.000000e+00 0.000000e+00  0.000000e+00 0.000000e+00 0.000000e+00  0.000000e+00 0.000000e+00 0.000000e+00  0.000000e+00 0.000000e+00 0.000000e+00  7.183680e-03 7.113541e-01 0.000000e+00  2.227917e-02 1.419333e+00 0.000000e+00  5.049557e-02 2.103966e+00 0.000000e+00  9.674037e-02 2.739089e+00 0.000000e+00  1.597718e-01 3.295818e+00 0.000000e+00  2.345712e-01 3.755579e+00 0.000000e+00  3.177289e-01 4.099677e+00 0.000000e+00  3.937206e-01 4.315829e+00 0.000000e+00  4.456051e-01 4.426778e+00 0.000000e+00  -1.785787e-01 4.991997e+00 0.000000e+00  -2.089781e-01 5.074195e+00 0.000000e+00  -2.278559e-01 5.171575e+00 0.000000e+00  -1.994756e-01 5.216393e+00 0.000000e+00  -1.037813e-01 5.068187e+00 0.000000e+00  1.587632e-02 4.591924e+00 0.000000e+00  8.715051e-02 3.776963e+00 0.000000e+00  8.553391e-02 2.711006e+00 0.000000e+00  4.024851e-02 1.463990e+00 0.000000e+00  5.004694e-01 4.483914e+00 0.000000e+00  5.436278e-01 4.514654e+00 0.000000e+00  5.471756e-01 4.549806e+00 0.000000e+00  4.824674e-01 4.593012e+00 0.000000e+00  3.557757e-01 4.652738e+00 0.000000e+00  2.024815e-01 4.729220e+00 0.000000e+00  6.042251e-02 4.810494e+00 0.000000e+00  -5.041612e-02 4.881306e+00 0.000000e+00  -1.252557e-01 4.931189e+00 0.000000e+00  1.208544e+00 6.491381e+00 0.000000e+00  3.970687e-01 3.042471e+00 0.000000e+00  -1.235327e-01 4.893286e+00 0.000000e+00  4.907641e-01 4.504444e+00 0.000000e+00  1.363317e-02 1.921243e+00 0.000000e+00  1.008087e-01 3.113675e+00 0.000000e+00  1.101040e-01 1.279959e+00 0.000000e+00  -1.646286e-01 5.373400e+00 0.000000e+00  1.455775e-01 4.689501e+00 0.000000e+00  3.245594e-01 4.234379e+00 0.000000e+00  -2.759870e-01 5.225191e+00 0.000000e+00  4.705860e-01 4.467988e+00 0.000000e+00  -1.635625e-01 4.958170e+00 0.000000e+00  2.027000e-02 9.351495e-01 0.000000e+00  2.793021e-03 4.684655e-01 0.000000e+00  3.871181e-01 4.557704e+00 0.000000e+00  -8.334010e-02 7.272495e+00 0.000000e+00  -3.740560e-01 7.935039e+00 0.000000e+00  -8.055194e-01 8.412639e+00 0.000000e+00  1.124343e+00 6.679970e+00 0.000000e+00  3.847243e-01 4.693245e+00 0.000000e+00  6.731777e-02 3.397780e+00 0.000000e+00  4.280924e-01 4.568764e+00 0.000000e+00  1.280248e-01 2.144238e+00 0.000000e+00  1.766957e-01 4.485045e+00 0.000000e+00  2.207590e-01 1.550447e+00 0.000000e+00  7.785175e-01 4.346095e+00 0.000000e+00  -1.139652e-02 1.010001e+00 0.000000e+00  4.487337e-01 4.439056e+00 0.000000e+00  -2.200398e-01 5.037543e+00 0.000000e+00  1.801286e-01 3.582654e+00 0.000000e+00  6.585484e-03 1.120155e+00 0.000000e+00  -6.181353e-02 4.808959e+00 0.000000e+00  5.417612e-02 2.517765e+00 0.000000e+00  1.010556e-02 2.372489e+00 0.000000e+00  4.540947e-01 4.482801e+00 0.000000e+00  -2.203903e-01 4.988373e+00 0.000000e+00  -4.669145e-02 4.856096e+00 0.000000e+00  5.288017e-01 4.525982e+00 0.000000e+00  -2.148729e-01 5.286783e+00 0.000000e+00  6.652254e-04 4.530043e-01 0.000000e+00  6.312415e-02 3.103918e+00 0.000000e+00  6.645706e-02 1.477930e+00 0.000000e+00  4.007221e-01 2.399544e+00 0.000000e+00  -3.108466e-01 5.524021e+00 0.000000e+00  2.529013e-01 4.669474e+00 0.000000e+00  2.816688e-01 4.215398e+00 0.000000e+00  -2.272379e-01 5.227534e+00 0.000000e+00  4.006861e-01 4.542443e+00 0.000000e+00  1.092697e+00 6.966580e+00 0.000000e+00  3.714465e-01 4.629668e+00 0.000000e+00  3.444766e-01 7.056960e+00 0.000000e+00  3.345985e-02 6.635933e+00 0.000000e+00  -6.300242e-01 8.286616e+00 0.000000e+00  -2.152681e-01 7.627347e+00 0.000000e+00  -8.517858e-01 8.439681e+00 0.000000e+00  1.172227e+00 6.470299e+00 0.000000e+00  -3.657702e-01 7.756256e+00 0.000000e+00  1.235998e+00 6.882632e+00 0.000000e+00  -4.742442e-01 8.060953e+00 0.000000e+00  -8.554245e-01 8.419453e+00 0.000000e+00  -7.264857e-01 8.396197e+00 0.000000e+00  4.031243e-01 4.679189e+00 0.000000e+00  3.739340e-01 4.711481e+00 0.000000e+00  3.982677e-01 4.708525e+00 0.000000e+00  7.829688e-02 3.428978e+00 0.000000e+00  6.180485e-02 3.378541e+00 0.000000e+00  6.739757e-02 3.409437e+00 0.000000e+00  4.310868e-01 4.834302e+00 0.000000e+00  1.224838e-01 1.386176e+00 0.000000e+00  3.405226e-02 4.791467e+00 0.000000e+00  -1.873158e-02 6.774978e-01 0.000000e+00  -1.504581e-01 4.941466e+00 0.000000e+00  1.356421e-01 3.147926e+00 0.000000e+00  1.047965e-01 8.371540e-01 0.000000e+00  5.239795e-01 2.796425e+00 0.000000e+00  3.830873e-01 4.318856e+00 0.000000e+00  3.836265e-01 4.613084e+00 0.000000e+00  4.224808e-01 4.416913e+00 0.000000e+00  5.044355e-01 4.555945e+00 0.000000e+00  -3.824009e-03 7.371515e-01 0.000000e+00  2.179012e-02 4.838663e+00 0.000000e+00  4.973881e-01 4.490257e+00 0.000000e+00  1.589969e-01 3.555247e+00 0.000000e+00  3.448440e-02 1.076855e+00 0.000000e+00  1.424228e-01 3.256437e+00 0.000000e+00  -2.808862e-01 5.107917e+00 0.000000e+00  5.491582e-03 1.578309e+00 0.000000e+00  3.062518e-02 1.816099e+00 0.000000e+00  2.650694e-01 3.966339e+00 0.000000e+00  2.378011e-01 4.596618e+00 0.000000e+00  7.034783e-02 1.950777e+00 0.000000e+00  8.053570e-01 5.851083e+00 0.000000e+00  3.927144e-01 4.526869e+00 0.000000e+00  -2.400352e-01 5.146442e+00 0.000000e+00  -2.968130e-01 5.346671e+00 0.000000e+00  8.725246e-01 4.357959e+00 0.000000e+00  4.560237e-01 4.450317e+00 0.000000e+00  -1.853289e-01 4.909360e+00 0.000000e+00  2.147236e-01 2.003046e+00 0.000000e+00  4.257833e-02 2.786258e+00 0.000000e+00  -3.094763e-02 4.754460e+00 0.000000e+00  -1.300345e-01 4.883920e+00 0.000000e+00  2.760408e-02 2.298263e+00 0.000000e+00  3.997389e-03 2.710200e+00 0.000000e+00  1.849553e-03 2.232384e+00 0.000000e+00  -1.696760e-01 5.221905e+00 0.000000e+00  2.975636e-02 1.446247e+00 0.000000e+00  -2.468614e-01 5.254813e+00 0.000000e+00  4.072244e-01 4.473125e+00 0.000000e+00  -2.555621e-01 5.025937e+00 0.000000e+00  5.212031e-02 3.189030e+00 0.000000e+00  -4.062008e-01 5.520666e+00 0.000000e+00  2.035396e-01 4.013124e+00 0.000000e+00  1.069715e+00 5.853743e+00 0.000000e+00  4.026372e-01 4.599787e+00 0.000000e+00  1.342277e-01 6.883325e+00 0.000000e+00  -2.863213e-01 7.432904e+00 0.000000e+00  3.257262e-01 4.581907e+00 0.000000e+00  1.158117e-02 7.554336e+00 0.000000e+00  -1.576495e-01 7.008173e+00 0.000000e+00  -5.504027e-01 8.183113e+00 0.000000e+00  3.026734e-01 7.388641e+00 0.000000e+00  -4.660172e-01 8.170717e+00 0.000000e+00  3.569623e-01 4.687708e+00 0.000000e+00  -7.437605e-01 8.360238e+00 0.000000e+00  -8.712475e-01 8.435195e+00 0.000000e+00  -6.358986e-01 8.335320e+00 0.000000e+00  -8.027964e-01 8.427655e+00 0.000000e+00  -4.193226e-01 7.938711e+00 0.000000e+00  -8.223524e-01 8.398234e+00 0.000000e+00  -8.670698e-01 8.450637e+00 0.000000e+00  9.736376e-02 3.460140e+00 0.000000e+00  7.137342e-02 3.420898e+00 0.000000e+00  5.720633e-02 3.357712e+00 0.000000e+00  6.482163e-02 3.398047e+00 0.000000e+00  -1.918056e-01 5.004587e+00 0.000000e+00  7.811171e-02 8.809268e-01 0.000000e+00  2.486677e-01 3.090108e+00 0.000000e+00  3.775853e-02 5.441461e+00 0.000000e+00  2.583287e-01 1.741959e+00 0.000000e+00  -1.224589e-04 1.348044e+00 0.000000e+00  2.414821e-01 1.904779e+00 0.000000e+00  4.865074e-01 4.534525e+00 0.000000e+00  1.086721e-01 4.169321e+00 0.000000e+00  3.489146e-01 4.050392e+00 0.000000e+00  6.039657e-01 3.521272e+00 0.000000e+00  -1.899529e-02 4.326815e-01 0.000000e+00  4.996608e-01 5.560010e+00 0.000000e+00  9.464103e-02 2.846405e+00 0.000000e+00  -1.089486e-01 5.157681e+00 0.000000e+00  -2.121128e-01 5.000046e+00 0.000000e+00  2.321746e-01 3.979441e+00 0.000000e+00  -5.468862e-02 4.829104e+00 0.000000e+00  1.873612e-01 3.539303e+00 0.000000e+00  4.246176e-01 4.399906e+00 0.000000e+00  4.584450e-01 4.457293e+00 0.000000e+00  3.247160e-01 4.187921e+00 0.000000e+00  7.397579e-02 1.262262e+00 0.000000e+00  -1.233567e-01 4.907057e+00 0.000000e+00  1.144852e-03 6.755010e-01 0.000000e+00  -1.024885e-01 4.901754e+00 0.000000e+00  1.381616e-01 3.325953e+00 0.000000e+00  3.665708e-02 7.145977e-01 0.000000e+00  8.559306e-03 8.481240e-01 0.000000e+00  -3.310896e-01 5.218258e+00 0.000000e+00  1.573248e-02 1.370926e+00 0.000000e+00  4.550533e-01 4.583279e+00 0.000000e+00  6.002058e-01 3.047771e+00 0.000000e+00  3.933316e-01 4.357793e+00 0.000000e+00  3.825364e-01 4.394588e+00 0.000000e+00  3.000083e-01 4.554553e+00 0.000000e+00  3.766383e-02 4.759037e+00 0.000000e+00  -1.671529e-03 3.941986e-01 0.000000e+00  1.373724e-01 3.472192e+00 0.000000e+00  2.829775e-01 4.616317e+00 0.000000e+00  5.841760e-02 2.359654e+00 0.000000e+00  5.904806e-03 1.966898e+00 0.000000e+00  -1.320258e-02 1.025089e+00 0.000000e+00  1.230166e-01 4.663246e+00 0.000000e+00  -2.253195e-01 5.119639e+00 0.000000e+00  7.719595e-02 8.676053e-01 0.000000e+00  9.402135e-01 5.250534e+00 0.000000e+00  -3.181739e-02 3.451188e-01 0.000000e+00  1.787921e-01 3.742965e+00 0.000000e+00  4.716756e-02 2.639380e+00 0.000000e+00  -2.537192e-01 5.112161e+00 0.000000e+00  -2.751968e-01 5.061873e+00 0.000000e+00  2.828124e-02 1.603515e+00 0.000000e+00  4.212921e-01 4.508887e+00 0.000000e+00  4.119570e-01 2.529147e+00 0.000000e+00  4.578573e-01 4.469078e+00 0.000000e+00  1.810463e-01 1.688634e+00 0.000000e+00  3.032014e-02 2.078256e+00 0.000000e+00  -2.009365e-01 4.946552e+00 0.000000e+00  1.509352e-01 1.830630e+00 0.000000e+00  -2.327881e-01 5.345554e+00 0.000000e+00  -3.492333e-01 5.397281e+00 0.000000e+00  7.256541e-01 3.532623e+00 0.000000e+00  -1.385644e-01 4.834954e+00 0.000000e+00  7.560514e-02 3.033595e+00 0.000000e+00  -2.802587e-01 5.289345e+00 0.000000e+00  -2.119385e-01 5.249938e+00 0.000000e+00  -2.464422e-01 5.203068e+00 0.000000e+00  7.619150e-01 6.536252e+00 0.000000e+00  -2.306939e-01 4.964490e+00 0.000000e+00  3.126026e-02 4.686557e+00 0.000000e+00  2.466585e-02 2.944587e+00 0.000000e+00  2.887728e-02 2.843066e+00 0.000000e+00  -6.439540e-03 2.479114e+00 0.000000e+00  1.161242e-02 1.999022e+00 0.000000e+00  3.731656e-01 4.502912e+00 0.000000e+00  2.449286e-01 4.244842e+00 0.000000e+00  -3.997506e-01 5.658256e+00 0.000000e+00  1.630321e-02 3.055548e+00 0.000000e+00  -2.788355e-01 5.049387e+00 0.000000e+00  7.043967e-02 3.316998e+00 0.000000e+00  1.070499e+00 6.274096e+00 0.000000e+00  -4.429160e-01 5.447723e+00 0.000000e+00  1.011972e+00 5.405943e+00 0.000000e+00  4.061736e-01 4.577480e+00 0.000000e+00  1.220761e-01 7.225447e+00 0.000000e+00  -1.692658e-01 6.736419e+00 0.000000e+00  3.293434e-01 4.653859e+00 0.000000e+00  -3.101555e-01 7.693765e+00 0.000000e+00  3.966431e-01 4.645168e+00 0.000000e+00  -2.209304e-01 7.919170e+00 0.000000e+00  -2.929983e-01 7.206174e+00 0.000000e+00  -4.147653e-01 8.197786e+00 0.000000e+00  -8.422825e-01 8.444296e+00 0.000000e+00  -4.547288e-01 8.015000e+00 0.000000e+00  -8.748233e-01 8.447407e+00 0.000000e+00  3.558459e-01 4.709478e+00 0.000000e+00  9.173047e-02 3.472811e+00 0.000000e+00  5.311208e-02 3.330850e+00 0.000000e+00  8.691899e-02 4.989771e+00 0.000000e+00  2.047561e-01 2.151990e+00 0.000000e+00  6.428959e-01 4.557670e+00 0.000000e+00  4.973105e-01 4.498103e+00 0.000000e+00  8.849916e-03 9.605983e-01 0.000000e+00  5.216063e-01 4.022102e+00 0.000000e+00  -1.804588e-01 4.970950e+00 0.000000e+00  -4.533047e-02 4.947570e+00 0.000000e+00  4.038560e-01 2.458091e+00 0.000000e+00  9.200439e-02 7.976477e-01 0.000000e+00  2.099556e-01 3.820346e+00 0.000000e+00  1.096945e-02 1.543353e+00 0.000000e+00  1.236874e-01 3.043252e+00 0.000000e+00  -9.289318e-03 5.713876e-01 0.000000e+00  4.747254e-01 4.508533e+00 0.000000e+00  1.338124e-01 4.725449e+00 0.000000e+00  3.583876e-03 4.327001e-01 0.000000e+00  -5.162262e-03 2.440726e-01 0.000000e+00  -2.238420e-01 5.082112e+00 0.000000e+00  5.104259e-01 4.526681e+00 0.000000e+00  1.525702e-01 1.265414e+00 0.000000e+00  4.136270e-01 2.352597e+00 0.000000e+00  6.776978e-02 4.652715e-01 0.000000e+00  3.380325e-01 2.021951e+00 0.000000e+00  6.803103e-01 3.498358e+00 0.000000e+00  1.906637e-01 3.761123e+00 0.000000e+00  -6.663114e-02 4.854059e+00 0.000000e+00  1.670003e-01 5.725866e+00 0.000000e+00  -2.697369e-03 1.044976e+00 0.000000e+00  2.673543e-03 1.318194e+00 0.000000e+00  4.422374e-01 4.533482e+00 0.000000e+00  1.408050e-01 4.628423e+00 0.000000e+00  3.559580e-01 4.561529e+00 0.000000e+00  -1.829393e-01 4.949301e+00 0.000000e+00  7.832987e-02 2.853483e+00 0.000000e+00  3.706189e-01 4.347330e+00 0.000000e+00  1.248854e-01 3.366768e+00 0.000000e+00  5.845941e-01 6.102225e+00 0.000000e+00  3.879397e-01 4.517359e+00 0.000000e+00  5.783985e-02 1.200582e+00 0.000000e+00  6.178699e-03 1.830635e+00 0.000000e+00  -3.846383e-03 1.297070e+00 0.000000e+00  -2.656653e-01 5.405721e+00 0.000000e+00  4.354545e-02 9.264145e-01 0.000000e+00  4.074854e-02 4.730745e+00 0.000000e+00  2.728594e-01 4.068890e+00 0.000000e+00  -2.451737e-01 5.059595e+00 0.000000e+00  -1.210357e-01 5.483526e+00 0.000000e+00  -2.865512e-01 5.172521e+00 0.000000e+00  9.651064e-01 4.992827e+00 0.000000e+00  -2.484557e-01 5.043427e+00 0.000000e+00  5.365747e-01 2.852754e+00 0.000000e+00  8.493194e-01 5.083112e+00 0.000000e+00  -1.616672e-01 5.286329e+00 0.000000e+00  2.326729e-02 2.476276e+00 0.000000e+00  1.114614e-02 2.150979e+00 0.000000e+00  9.522038e-01 6.084105e+00 0.000000e+00  1.646472e-01 3.616214e+00 0.000000e+00  2.752657e-01 4.142024e+00 0.000000e+00  -1.957470e-02 8.058051e-01 0.000000e+00  -1.500594e-01 4.887197e+00 0.000000e+00  2.807393e-01 2.169872e+00 0.000000e+00  8.337587e-02 1.652684e+00 0.000000e+00  3.414049e-01 4.400183e+00 0.000000e+00  -1.172878e-01 4.837385e+00 0.000000e+00  1.288854e-01 1.730543e+00 0.000000e+00  2.844310e-01 2.132858e+00 0.000000e+00  -2.499756e-01 5.006255e+00 0.000000e+00  -3.235611e-01 5.133165e+00 0.000000e+00  9.850478e-02 3.329230e+00 0.000000e+00  -3.362554e-01 5.318893e+00 0.000000e+00  -2.115789e-01 4.922356e+00 0.000000e+00  4.163741e-01 4.420742e+00 0.000000e+00  1.460171e-02 1.766618e+00 0.000000e+00  1.595315e-02 2.605067e+00 0.000000e+00  -3.106424e-01 5.236896e+00 0.000000e+00  4.129466e-01 4.509444e+00 0.000000e+00  2.533814e-03 2.432938e+00 0.000000e+00  -2.584081e-01 5.322492e+00 0.000000e+00  2.524195e-01 4.550793e+00 0.000000e+00  -6.611014e-02 4.758132e+00 0.000000e+00  -1.093705e-02 2.739082e+00 0.000000e+00  5.989412e-03 2.038239e+00 0.000000e+00  -4.117386e-01 5.396116e+00 0.000000e+00  1.476676e-01 3.569855e+00 0.000000e+00  4.185452e-01 4.452683e+00 0.000000e+00  1.855077e-01 3.886939e+00 0.000000e+00  2.398539e-01 2.026620e+00 0.000000e+00  6.231772e-01 3.128936e+00 0.000000e+00  8.339105e-01 7.008351e+00 0.000000e+00  -3.345042e-01 5.626463e+00 0.000000e+00  -6.486157e-0