<?xml version="1.0"?>
<VTKFile type="UnstructuredGrid"  version="0.1"  >
<UnstructuredGrid>
<Piece  NumberOfPoints="525" NumberOfCells="924">
<Points>
<DataArray  type="Float32"  NumberOfComponents="3"  format="ascii">0 0 0  2.2 0 0  2.2 0.41 0  0 0.41 0  0.15 0.2 0  0.25 0.2 0  0.2 0.15 0  0.2 0.25 0  0.104762 0 0  0.209524 0 0  0.314286 0 0  0.419048 0 0  0.52381 0 0  0.628571 0 0  0.733333 0 0  0.838095 0 0  0.942857 0 0  1.04762 0 0  1.15238 0 0  1.25714 0 0  1.3619 0 0  1.46667 0 0  1.57143 0 0  1.67619 0 0  1.78095 0 0  1.88571 0 0  1.99048 0 0  2.09524 0 0  2.2 0.1025 0  2.2 0.205 0  2.2 0.3075 0  2.1 0.41 0  2 0.41 0  1.9 0.41 0  1.8 0.41 0  1.7 0.41 0  1.6 0.41 0  1.5 0.41 0  1.4 0.41 0  1.3 0.41 0  1.2 0.41 0  1.1 0.41 0  1 0.41 0  0.9 0.41 0  0.8 0.41 0  0.7 0.41 0  0.6 0.41 0  0.5 0.41 0  0.4 0.41 0  0.3 0.41 0  0.2 0.41 0  0.1 0.41 0  0 0.3075 0  0 0.205 0  0 0.1025 0  0.156699 0.225 0  0.175 0.243301 0  0.225 0.243301 0  0.243301 0.225 0  0.243301 0.175 0  0.225 0.156699 0  0.175 0.156699 0  0.156699 0.175 0  0.352033 0.262216 0  1.04579 0.252253 0  1.24065 0.243419 0  0.985775 0.171509 0  1.30324 0.187395 0  0.890988 0.190768 0  1.39085 0.202767 0  0.801464 0.204685 0  1.49904 0.204666 0  0.704267 0.202289 0  1.60238 0.204951 0  0.487789 0.19191 0  1.72935 0.219637 0  1.83335 0.187427 0  2.03359 0.193642 0  0.314663 0.307348 0  0.249039 0.333583 0  2.12147 0.253405 0  2.06373 0.0836837 0  0.0734726 0.267055 0  0.143989 0.0677174 0  0.0613613 0.33781 0  0.299628 0.236829 0  0.527114 0.295386 0  0.262384 0.26549 0  0.275777 0.18341 0  1.74578 0.330928 0  1.84001 0.302448 0  1.64998 0.313838 0  0.648421 0.302367 0  1.54544 0.308508 0  0.755686 0.306156 0  1.42668 0.314809 0  0.870524 0.298596 0  1.22553 0.112785 0  1.05603 0.147372 0  0.969346 0.329867 0  1.32527 0.276284 0  2.02914 0.29511 0  1.88168 0.119486 0  1.79545 0.104842 0  1.35688 0.0892539 0  1.69041 0.105324 0  0.914199 0.0955566 0  1.58234 0.102923 0  0.61843 0.10815 0  1.47999 0.101161 0  0.725217 0.104273 0  0.821727 0.102306 0  1.96725 0.105778 0  0.418624 0.241547 0  0.135226 0.239087 0  1.14921 0.314841 0  0.404508 0.333259 0  0.590155 0.206269 0  2.12554 0.150731 0  1.93166 0.22436 0  0.104689 0.190046 0  0.267856 0.0744753 0  0.269368 0.221581 0  0.434446 0.114927 0  1.0089 0.0793381 0  0.953023 0.246698 0  1.25853 0.33355 0  1.05268 0.340828 0  2.1369 0.067383 0  0.522398 0.112537 0  1.3421 0.348929 0  0.215186 0.289473 0  0.203197 0.335348 0  1.13984 0.190728 0  1.93813 0.330504 0  1.10505 0.0883705 0  0.341988 0.0824728 0  0.253113 0.138035 0  0.291932 0.131907 0  0.203713 0.102439 0  0.150375 0.134668 0  0.151494 0.309119 0  0.354384 0.17896 0  0.0685367 0.100776 0  0.424128 0.180088 0  0.474925 0.0568661 0  2.10843 0.347669 0  2.16073 0.280452 0  2.16073 0.229202 0  2.2 0.25625 0  2.07949 0.0418418 0  2.02711 0.0418418 0  2.04286 0 0  0.176756 0.0338587 0  0.124375 0.0338587 0  0.157143 0 0  0.0806807 0.373905 0  0.0306807 0.373905 0  0.05 0.41 0  0.0306807 0.322655 0  0 0.35875 0  0.281851 0.320466 0  0.27452 0.371791 0  0.307331 0.358674 0  0.067417 0.302432 0  0.0367363 0.287277 0  0.307146 0.272089 0  0.325831 0.249523 0  0.333348 0.284782 0  0.255711 0.299536 0  0.288524 0.286419 0  2.07531 0.274257 0  2.03137 0.244376 0  2.07753 0.223523 0  2.01549 0.0947309 0  1.97886 0.052889 0  2.00042 0.14971 0  2.04866 0.138663 0  0.472869 0.268466 0  0.453206 0.216728 0  0.507451 0.243648 0  2.16277 0.177866 0  2.16277 0.126615 0  2.2 0.15375 0  1.90667 0.171923 0  1.88251 0.205894 0  1.85752 0.153456 0  1.88583 0.263404 0  1.83668 0.244938 0  0.604293 0.15721 0  0.647211 0.204279 0  0.661349 0.15522 0  0.359586 0.320304 0  0.37827 0.297737 0  0.155113 0.241194 0  0.145962 0.232044 0  0.164645 0.235355 0  0.259539 0.179205 0  0.262888 0.191705 0  0.248296 0.187059 0  0.281006 0.251159 0  1.0209 0.15944 0  1.05091 0.199813 0  1.01578 0.211881 0  1.26438 0.15009 0  1.23309 0.178102 0  1.27195 0.215407 0  1.29121 0.101019 0  1.33006 0.138324 0  0.928528 0.0477783 0  0.876147 0.0477783 0  0.890476 0 0  0.902594 0.143162 0  0.949987 0.133533 0  0.938381 0.181138 0  0.867963 0.0989313 0  0.856357 0.146537 0  0.829911 0.051153 0  1.41178 0.0446269 0  1.35939 0.0446269 0  1.41429 0 0  1.37386 0.14601 0  1.34705 0.195081 0  1.41844 0.0952074 0  1.43542 0.151964 0  1.47333 0.0505805 0  0.77753 0.051153 0  0.785714 0 0  0.811595 0.153496 0  0.846226 0.197726 0  0.773472 0.10329 0  0.76334 0.154479 0  0.729275 0.0521365 0  1.52571 0.0505805 0  1.51905 0 0  1.48951 0.152913 0  1.44494 0.203716 0  1.53117 0.102042 0  1.54069 0.153795 0  1.57689 0.0514615 0  1.9804 0.259735 0  1.98262 0.209001 0  1.82001 0.356224 0  1.87 0.356224 0  1.85 0.41 0  1.78468 0.261043 0  1.78135 0.203532 0  1.72289 0.370464 0  1.77289 0.370464 0  1.75 0.41 0  1.7929 0.316688 0  1.73757 0.275282 0  1.62499 0.361919 0  1.67499 0.361919 0  1.65 0.41 0  1.69788 0.322383 0  1.68966 0.266738 0  1.62618 0.259394 0  1.66586 0.212294 0  0.624211 0.356183 0  0.674211 0.356183 0  0.65 0.41 0  0.619288 0.254318 0  0.676344 0.252328 0  1.52272 0.359254 0  1.57272 0.359254 0  1.55 0.41 0  1.59771 0.311173 0  1.57391 0.256729 0  1.52224 0.256587 0  1.55071 0.204809 0  0.727843 0.358078 0  0.777843 0.358078 0  0.75 0.41 0  0.702053 0.304261 0  0.729977 0.254223 0  0.778575 0.25542 0  0.752865 0.203487 0  1.41334 0.362405 0  1.46334 0.362405 0  1.45 0.41 0  1.48606 0.311659 0  1.46286 0.259738 0  1.40876 0.258788 0  0.835262 0.354298 0  0.885262 0.354298 0  0.85 0.41 0  0.813105 0.302376 0  0.835994 0.25164 0  0.880756 0.244682 0  0.934673 0.369934 0  0.984673 0.369934 0  0.95 0.41 0  0.919935 0.314231 0  0.676894 0.0521365 0  0.680952 0 0  0.714742 0.153281 0  0.671824 0.106212 0  0.623501 0.054075 0  1.62927 0.0514615 0  1.62381 0 0  1.59236 0.153937 0  1.63638 0.104124 0  1.6464 0.155137 0  1.6833 0.052662 0  1.73568 0.052662 0  1.72857 0 0  1.70988 0.16248 0  1.74293 0.105083 0  1.7624 0.16224 0  1.7882 0.052421 0  1.84058 0.052421 0  1.83333 0 0  1.8144 0.146135 0  1.83857 0.112164 0  1.88369 0.059743 0  1.12461 0.36242 0  1.17461 0.36242 0  1.15 0.41 0  1.31425 0.231839 0  1.28296 0.259852 0  1.35806 0.239526 0  1.37597 0.295546 0  1.92648 0.052889 0  1.9381 0 0  1.92447 0.112632 0  1.94945 0.165069 0  0.352254 0.37163 0  0.402254 0.37163 0  0.35 0.41 0  0.513557 0.352693 0  0.563557 0.352693 0  0.55 0.41 0  0.587767 0.298876 0  0.558634 0.250827 0  0.538972 0.19909 0  0.452254 0.37163 0  0.45 0.41 0  0.465811 0.314323 0  0.411566 0.287403 0  0.385328 0.251881 0  0.119958 0.214566 0  0.0890808 0.22855 0  0.104349 0.253071 0  0.22452 0.371791 0  0.25 0.41 0  0.291071 0.0372376 0  0.23869 0.0372376 0  0.261905 0 0  0.265876 0.243536 0  0.256335 0.223291 0  0.252842 0.245245 0  0.284498 0.229205 0  1.03246 0.113355 0  0.997337 0.125424 0  0.961549 0.0874474 0  0.922006 0.218733 0  0.969399 0.209103 0  0.961184 0.288282 0  0.911774 0.272647 0  1.22926 0.371775 0  1.27927 0.371775 0  1.25 0.41 0  1.02634 0.375414 0  1.07634 0.375414 0  1.05 0.41 0  1.01101 0.335348 0  2.11607 0.0336915 0  2.16845 0.0336915 0  2.14762 0 0  2.16845 0.0849415 0  2.2 0.05125 0  2.10032 0.0755333 0  0.556277 0.159403 0  0.570414 0.110343 0  0.505093 0.152224 0  1.32105 0.379464 0  1.37105 0.379464 0  1.35 0.41 0  1.33369 0.312607 0  1.38439 0.331869 0  0.999406 0.249476 0  1.00757 0.29106 0  1.30031 0.34124 0  1.2919 0.304917 0  2.13122 0.109057 0  2.09464 0.117207 0  0.272572 0.202495 0  0.259684 0.21079 0  0.248296 0.212941 0  0.287702 0.21012 0  2.1235 0.202068 0  2.07956 0.172187 0  1.02826 0.039669 0  0.975878 0.039669 0  0.995238 0 0  1.04923 0.29654 0  1.10095 0.327835 0  1.0975 0.283547 0  0.57112 0.054075 0  0.576191 0 0  0.523104 0.0562685 0  1.24959 0.288485 0  1.20387 0.324195 0  1.19493 0.27913 0  0.238785 0.277481 0  0.232112 0.311528 0  0.226118 0.334465 0  0.201599 0.372674 0  1.14453 0.252784 0  1.19024 0.217074 0  1.09281 0.221491 0  0.209191 0.31241 0  0.220093 0.266387 0  0.243692 0.254395 0  0.235355 0.235355 0  0.478422 0.113732 0  0.461117 0.153419 0  1.91906 0.370252 0  1.96907 0.370252 0  1.95 0.41 0  1.98364 0.312807 0  2.01457 0.352555 0  1.88907 0.316476 0  1.9349 0.277432 0  1.18268 0.151757 0  1.09794 0.16905 0  1.12872 0.0441853 0  1.07634 0.0441853 0  1.1 0 0  1.05697 0.0838543 0  1.08054 0.117871 0  1.12244 0.139549 0  1.16529 0.100578 0  0.304922 0.078474 0  0.328137 0.0412364 0  0.380518 0.0412364 0  0.366667 0 0  0.388217 0.0986999 0  0.426747 0.0574635 0  0.31696 0.10719 0  0.279894 0.103191 0  0.272523 0.134971 0  0.260485 0.106255 0  0.228413 0.120237 0  0.214357 0.129569 0  0.239057 0.147367 0  1.30701 0.0446269 0  1.30952 0 0  1.24133 0.0563925 0  0.235785 0.0884571 0  1.18895 0.0563925 0  1.20476 0 0  0.206618 0.0512195 0  0.173851 0.0850782 0  0.0367363 0.236028 0  0 0.25625 0  0.264445 0.160722 0  0.248207 0.156517 0  0.235355 0.164645 0  0.283855 0.157658 0  0.130694 0.182523 0  0.127344 0.195023 0  0.151704 0.187059 0  0.127532 0.162357 0  0.153537 0.154834 0  0.0523445 0.197523 0  0.14336 0.274103 0  0.112483 0.288087 0  0.31508 0.181185 0  0.327006 0.207895 0  0.323158 0.155434 0  0.0866493 0.050388 0  0.0342684 0.050388 0  0.052381 0 0  0.0342684 0.101638 0  0 0.05125 0  0.421376 0.210817 0  0.455958 0.185999 0  0.429287 0.147508 0  0.106428 0.323464 0  0.353208 0.220588 0  0.106263 0.0842467 0  0.0342684 0.152888 0  0 0.15375 0  0.109456 0.117722 0  0.147182 0.101193 0  0.0866129 0.145411 0  0.162687 0.145684 0  0.164645 0.164645 0  0.348186 0.130716 0  0.386504 0.210254 0  0.389256 0.179524 0  0.394415 0.146944 0  0.125747 0.359559 0  0.175747 0.359559 0  0.15 0.41 0  0.177345 0.322233 0  0.142613 0.219544 0  0.151704 0.212941 0  0.499367 0.0284331 0  0.446986 0.0284331 0  0.471429 0 0  0.498661 0.0847016 0  0.454685 0.0858966 0  0.201856 0.126219 0  0.212941 0.151704 0  0.18334 0.299296 0  0.175187 0.142334 0  0.187059 0.151704 0  0.177044 0.118554 0  2.15421 0.327585 0  2.15421 0.378834 0  2.2 0.35875 0  2.10421 0.378834 0  2.15 0.41 0  2.05422 0.378
[...]
<PointData  Vectors="u"> 
<DataArray  type="Float32"  Name="u"  NumberOfComponents="3" format="ascii">0.000000e+00 0.000000e+00 0.000000e+00  0.000000e+00 0.000000e+00 0.000000e+00  0.000000e+00 0.000000e+00 0.000000e+00  0.000000e+00 0.000000e+00 0.000000e+00  0.000000e+00 0.000000e+00 0.000000e+00  0.000000e+00 0.000000e+00 0.000000e+00  0.000000e+00 0.000000e+00 0.000000e+00  0.000000e+00 0.000000e+00 0.000000e+00  0.000000e+00 0.000000e+00 0.000000e+00  0.000000e+00 0.000000e+00 0.000000e+00  0.000000e+00 0.000000e+00 0.000000e+00  0.000000e+00 0.000000e+00 0.000000e+00  0.000000e+00 0.000000e+00 0.000000e+00  0.000000e+00 0.000000e+00 0.000000e+00  0.000000e+00 0.000000e+00 0.000000e+00  0.000000e+00 0.000000e+00 0.000000e+00  0.000000e+00 0.000000e+00 0.000000e+00  0.000000e+00 0.000000e+00 0.000000e+00  0.000000e+00 0.000000e+00 0.000000e+00  0.000000e+00 0.000000e+00 0.000000e+00  0.000000e+00 0.000000e+00 0.000000e+00  0.000000e+00 0.000000e+00 0.000000e+00  0.000000e+00 0.000000e+00 0.000000e+00  0.000000e+00 0.000000e+00 0.000000e+00  0.000000e+00 0.000000e+00 0.000000e+00  0.000000e+00 0.000000e+00 0.000000e+00  0.000000e+00 0.000000e+00 0.000000e+00  0.000000e+00 0.000000e+00 0.000000e+00  1.125000e+00 1.048428e-06 0.000000e+00  1.500000e+00 1.747743e-06 0.000000e+00  1.125000e+00 1.048048e-06 0.000000e+00  0.000000e+00 0.000000e+00 0.000000e+00  0.000000e+00 0.000000e+00 0.000000e+00  0.000000e+00 0.000000e+00 0.000000e+00  0.000000e+00 0.000000e+00 0.000000e+00  0.000000e+00 0.000000e+00 0.000000e+00  0.000000e+00 0.000000e+00 0.000000e+00  0.000000e+00 0.000000e+00 0.000000e+00  0.000000e+00 0.000000e+00 0.000000e+00  0.000000e+00 0.000000e+00 0.000000e+00  0.000000e+00 0.000000e+00 0.000000e+00  0.000000e+00 0.000000e+00 0.000000e+00  0.000000e+00 0.000000e+00 0.000000e+00  0.000000e+00 0.000000e+00 0.000000e+00  0.000000e+00 0.000000e+00 0.000000e+00  0.000000e+00 0.000000e+00 0.000000e+00  0.000000e+00 0.000000e+00 0.000000e+00  0.000000e+00 0.000000e+00 0.000000e+00  0.000000e+00 0.000000e+00 0.000000e+00  0.000000e+00 0.000000e+00 0.000000e+00  0.000000e+00 0.000000e+00 0.000000e+00  0.000000e+00 0.000000e+00 0.000000e+00  1.125000e+00 0.000000e+00 0.000000e+00  1.500000e+00 0.000000e+00 0.000000e+00  1.125000e+00 0.000000e+00 0.000000e+00  0.000000e+00 0.000000e+00 0.000000e+00  0.000000e+00 0.000000e+00 0.000000e+00  0.000000e+00 0.000000e+00 0.000000e+00  0.000000e+00 0.000000e+00 0.000000e+00  0.000000e+00 0.000000e+00 0.000000e+00  0.000000e+00 0.000000e+00 0.000000e+00  0.000000e+00 0.000000e+00 0.000000e+00  0.000000e+00 0.000000e+00 0.000000e+00  1.254849e+00 -3.268052e-01 0.000000e+00  1.413435e+00 -8.507208e-03 0.000000e+00  1.442536e+00 -5.140295e-03 0.000000e+00  1.422925e+00 2.754845e-03 0.000000e+00  1.480475e+00 -1.612568e-03 0.000000e+00  1.465239e+00 9.768606e-03 0.000000e+00  1.497570e+00 -2.870287e-03 0.000000e+00  1.492259e+00 4.329703e-03 0.000000e+00  1.499699e+00 -1.371284e-03 0.000000e+00  1.498477e+00 -2.644348e-04 0.000000e+00  1.499976e+00 -4.709682e-04 0.000000e+00  1.459156e+00 -8.251377e-03 0.000000e+00  1.492359e+00 -7.343254e-05 0.000000e+00  1.488981e+00 -1.092566e-06 0.000000e+00  1.495396e+00 5.087055e-06 0.000000e+00  1.428338e+00 -4.292260e-01 0.000000e+00  1.755236e+00 -2.756872e-01 0.000000e+00  1.416369e+00 2.274227e-06 0.000000e+00  9.746853e-01 1.638525e-06 0.000000e+00  1.275198e+00 5.640707e-01 0.000000e+00  1.556118e+00 -2.961198e-01 0.000000e+00  1.082649e+00 2.946401e-01 0.000000e+00  8.273515e-01 -4.152604e-01 0.000000e+00  1.218319e+00 -2.363628e-02 0.000000e+00  1.131314e+00 -6.100229e-01 0.000000e+00  3.406262e-01 2.217283e-01 0.000000e+00  9.339830e-01 -1.434661e-05 0.000000e+00  1.161043e+00 2.438469e-06 0.000000e+00  1.077297e+00 -1.247573e-04 0.000000e+00  1.163031e+00 -1.531901e-03 0.000000e+00  1.118150e+00 -5.677932e-04 0.000000e+00  1.136673e+00 3.795131e-03 0.000000e+00  1.072028e+00 -2.012432e-03 0.000000e+00  1.198684e+00 1.286043e-02 0.000000e+00  1.192964e+00 1.880216e-03 0.000000e+00  1.359417e+00 6.944410e-04 0.000000e+00  9.740257e-01 2.906024e-03 0.000000e+00  1.321777e+00 -5.805580e-03 0.000000e+00  1.210175e+00 3.416346e-06 0.000000e+00  1.239000e+00 5.012052e-06 0.000000e+00  1.141950e+00 -6.504518e-06 0.000000e+00  1.020257e+00 8.825804e-04 0.000000e+00  1.145335e+00 -7.145777e-05 0.000000e+00  1.077588e+00 -2.980780e-03 0.000000e+00  1.127791e+00 -2.591105e-04 0.000000e+00  1.164007e+00 -8.683125e-04 0.000000e+00  1.114174e+00 -4.295098e-04 0.000000e+00  1.137986e+00 -1.795818e-03 0.000000e+00  1.124568e+00 -5.189128e-03 0.000000e+00  1.148609e+00 4.440917e-06 0.000000e+00  1.367903e+00 -1.093920e-01 0.000000e+00  6.018146e-01 5.487422e-01 0.000000e+00  1.086078e+00 -6.530360e-03 0.000000e+00  1.037667e+00 -1.148404e-01 0.000000e+00  1.497233e+00 -6.078068e-03 0.000000e+00  1.394881e+00 2.132174e-06 0.000000e+00  1.486620e+00 8.077127e-06 0.000000e+00  6.308953e-01 -1.046513e-01 0.000000e+00  1.542866e+00 3.303020e-01 0.000000e+00  3.152954e-01 -2.924912e-01 0.000000e+00  1.204803e+00 7.818784e-02 0.000000e+00  9.432121e-01 2.718150e-03 0.000000e+00  1.431822e+00 9.963143e-03 0.000000e+00  9.214226e-01 -3.122368e-03 0.000000e+00  8.702570e-01 4.662780e-04 0.000000e+00  8.240305e-01 6.761340e-07 0.000000e+00  1.191332e+00 1.039442e-02 0.000000e+00  7.664245e-01 -2.030731e-03 0.000000e+00  1.704244e+00 -1.936422e-01 0.000000e+00  1.894614e+00 -1.136802e-02 0.000000e+00  1.470865e+00 -3.425539e-03 0.000000e+00  9.377811e-01 3.514556e-06 0.000000e+00  1.016177e+00 1.822500e-03 0.000000e+00  1.180955e+00 2.556664e-01 0.000000e+00  1.004603e+00 5.529341e-01 0.000000e+00  1.146412e+00 5.475855e-01 0.000000e+00  1.765744e+00 3.679087e-02 0.000000e+00  1.098573e+00 -5.725660e-01 0.000000e+00  1.776577e+00 4.662211e-01 0.000000e+00  1.110209e+00 1.101140e-01 0.000000e+00  1.239235e+00 -4.217025e-01 0.000000e+00  1.364679e+00 2.305158e-02 0.000000e+00  7.338601e-01 1.684359e-02 0.000000e+00  7.734866e-01 7.046435e-07 0.000000e+00  1.296796e+00 1.476924e-06 0.000000e+00  1.479092e+00 1.907455e-06 0.000000e+00  1.406250e+00 1.553330e-06 0.000000e+00  5.498320e-01 4.324436e-07 0.000000e+00  5.498333e-01 6.760920e-07 0.000000e+00  0.000000e+00 0.000000e+00 0.000000e+00  1.156714e+00 -4.952138e-02 0.000000e+00  9.327723e-01 -1.077829e-01 0.000000e+00  0.000000e+00 0.000000e+00 0.000000e+00  7.403902e-01 1.142464e-01 0.000000e+00  5.279339e-01 5.463364e-02 0.000000e+00  0.000000e+00 0.000000e+00 0.000000e+00  1.063989e+00 2.303941e-01 0.000000e+00  6.562500e-01 0.000000e+00 0.000000e+00  1.600407e+00 -4.147860e-01 0.000000e+00  1.090406e+00 -1.084276e-01 0.000000e+00  1.140684e+00 -1.707622e-01 0.000000e+00  1.307996e+00 4.947297e-01 0.000000e+00  1.280109e+00 3.577147e-01 0.000000e+00  1.250658e+00 -5.321979e-01 0.000000e+00  1.105717e+00 -3.926444e-01 0.000000e+00  1.324374e+00 -4.179538e-01 0.000000e+00  1.676816e+00 -4.962599e-01 0.000000e+00  1.414216e+00 -5.756972e-01 0.000000e+00  1.328793e+00 2.884843e-06 0.000000e+00  1.444657e+00 4.832863e-06 0.000000e+00  1.487752e+00 3.596537e-06 0.000000e+00  1.066003e+00 2.869715e-06 0.000000e+00  6.741484e-01 1.437677e-06 0.000000e+00  1.390891e+00 5.442641e-06 0.000000e+00  1.342931e+00 3.627501e-06 0.000000e+00  1.353624e+00 -6.145274e-02 0.000000e+00  1.432124e+00 -3.937267e-02 0.000000e+00  1.436002e+00 -3.058379e-02 0.000000e+00  1.473720e+00 1.873652e-06 0.000000e+00  1.280698e+00 1.427427e-06 0.000000e+00  1.406250e+00 1.552373e-06 0.000000e+00  1.460953e+00 7.487686e-06 0.000000e+00  1.499972e+00 6.695299e-06 0.000000e+00  1.405181e+00 3.661263e-06 0.000000e+00  1.378242e+00 6.484213e-06 0.000000e+00  1.443064e+00 5.240963e-07 0.000000e+00  1.416042e+00 -2.233288e-03 0.000000e+00  1.499313e+00 -2.547743e-03 0.000000e+00  1.410646e+00 -1.776615e-03 0.000000e+00  1.240080e+00 -2.461883e-01 0.000000e+00  1.278596e+00 -2.388640e-01 0.000000e+00  4.075314e-01 3.644961e-01 0.000000e+00  3.164465e-01 3.781674e-01 0.000000e+00  0.000000e+00 0.000000e+00 0.000000e+00  1.781547e-01 2.319348e-01 0.000000e+00  1.126875e-01 9.397538e-02 0.000000e+00  0.000000e+00 0.000000e+00 0.000000e+00  9.079469e-01 -5.647792e-01 0.000000e+00  1.395842e+00 7.325176e-04 0.000000e+00  1.467840e+00 -5.046124e-03 0.000000e+00  1.466608e+00 -4.578527e-03 0.000000e+00  1.383360e+00 1.306203e-03 0.000000e+00  1.460102e+00 -1.006710e-03 0.000000e+00  1.486928e+00 -3.479013e-03 0.000000e+00  1.112244e+00 2.267360e-03 0.000000e+00  1.336564e+00 9.213117e-04 0.000000e+00  6.308600e-01 -3.994857e-04 0.000000e+00  6.277183e-01 -2.623936e-03 0.000000e+00  0.000000e+00 0.000000e+00 0.000000e+00  1.345913e+00 -8.301573e-04 0.000000e+00  1.298215e+00 5.415287e-03 0.000000e+00  1.440250e+00 9.667692e-03 0.000000e+00  1.101059e+00 -6.629317e-03 0.000000e+00  1.366431e+00 -3.762160e-03 0.000000e+00  6.612366e-01 -2.653501e-03 0.000000e+00  5.813611e-01 7.620726e-05 0.000000e+00  5.817356e-01 3.678891e-04 0.000000e+00  0.000000e+00 0.000000e+00 0.000000e+00  1.372319e+00 -4.942464e-04 0.000000e+00  1.491719e+00 -2.765705e-03 0.000000e+00  1.068256e+00 -1.043088e-04 0.000000e+00  1.397850e+00 -1.136715e-03 0.000000e+00  6.482864e-01 -9.295380e-05 0.000000e+00  6.580039e-01 -1.559437e-03 0.000000e+00  0.000000e+00 0.000000e+00 0.000000e+00  1.398389e+00 -2.132031e-03 0.000000e+00  1.482369e+00 6.760422e-03 0.000000e+00  1.131187e+00 -3.038950e-03 0.000000e+00  1.405792e+00 -1.346436e-03 0.000000e+00  6.671022e-01 -8.865632e-04 0.000000e+00  6.485007e-01 -1.055587e-04 0.000000e+00  0.000000e+00 0.000000e+00 0.000000e+00  1.402281e+00 -9.732600e-04 0.000000e+00  1.499073e+00 -2.104522e-03 0.000000e+00  1.121075e+00 -3.774572e-04 0.000000e+00  1.405970e+00 -6.852882e-04 0.000000e+00  6.583577e-01 -8.020954e-05 0.000000e+00  1.393062e+00 6.172717e-06 0.000000e+00  1.499428e+00 6.992854e-06 0.000000e+00  6.837330e-01 9.541109e-07 0.000000e+00  6.837350e-01 2.078595e-06 0.000000e+00  0.000000e+00 0.000000e+00 0.000000e+00  1.387894e+00 -1.624776e-05 0.000000e+00  1.499924e+00 -2.375547e-05 0.000000e+00  5.227818e-01 -5.905098e-06 0.000000e+00  5.227728e-01 -1.059540e-06 0.000000e+00  0.000000e+00 0.000000e+00 0.000000e+00  1.054747e+00 -4.161554e-06 0.000000e+00  1.323700e+00 -4.500458e-05 0.000000e+00  6.212135e-01 -5.358342e-05 0.000000e+00  6.211400e-01 -2.342816e-05 0.000000e+00  0.000000e+00 0.000000e+00 0.000000e+00  1.008226e+00 -4.816617e-05 0.000000e+00  1.363997e+00 -1.163806e-04 0.000000e+00  1.394512e+00 -3.126964e-04 0.000000e+00  1.498109e+00 -2.068402e-04 0.000000e+00  6.855588e-01 -9.965182e-04 0.000000e+00  6.847503e-01 7.397915e-05 0.000000e+00  0.000000e+00 0.000000e+00 0.000000e+00  1.413996e+00 -4.857505e-03 0.000000e+00  1.420238e+00 -6.724056e-04 0.000000e+00  6.513125e-01 -2.495938e-04 0.000000e+00  6.509882e-01 -1.281978e-04 0.000000e+00  0.000000e+00 0.000000e+00 0.000000e+00  1.097907e+00 -2.766294e-04 0.000000e+00  1.404715e+00 -6.176367e-04 0.000000e+00  1.405405e+00 -1.121506e-03 0.000000e+00  1.499904e+00 -8.355108e-04 0.000000e+00  6.649164e-01 9.381626e-04 0.000000e+00  6.671998e-01 1.980691e-03 0.000000e+00  0.000000e+00 0.000000e+00 0.000000e+00  1.149232e+00 1.097610e-03 0.000000e+00  1.412900e+00 2.411507e-03 0.000000e+00  1.407652e+00 6.101314e-03 0.000000e+00  1.496569e+00 1.633496e-03 0.000000e+00  6.180892e-01 -7.845551e-04 0.000000e+00  6.169648e-01 -4.629895e-04 0.000000e+00  0.000000e+00 0.000000e+00 0.000000e+00  1.095162e+00 -1.109297e-03 0.000000e+00  1.393752e+00 -2.068766e-03 0.000000e+00  1.397596e+00 -3.433674e-03 0.000000e+00  7.131650e-01 3.648038e-03 0.000000e+00  7.194420e-01 3.290956e-03 0.000000e+00  0.000000e+00 0.000000e+00 0.000000e+00  1.166366e+00 8.229626e-03 0.000000e+00  1.418344e+00 1.264142e-02 0.000000e+00  1.435779e+00 1.849776e-02 0.000000e+00  5.439301e-01 2.182740e-04 0.000000e+00  5.448452e-01 6.359379e-04 0.000000e+00  0.000000e+00 0.000000e+00 0.000000e+00  1.096806e+00 8.455189e-03 0.000000e+00  6.660220e-01 -5.577264e-04 0.000000e+00  0.000000e+00 0.000000e+00 0.000000e+00  1.403270e+00 -1.302376e-03 0.000000e+00  1.151286e+00 -1.353746e-03 0.000000e+00  6.863297e-01 -3.074479e-04 0.000000e+00  6.584764e-01 -4.697917e-05 0.000000e+00  0.000000e+00 0.000000e+00 0.000000e+00  1.406724e+00 -4.194372e-04 0.000000e+00  1.136655e+00 -1.475570e-04 0.000000e+00  1.411174e+00 -2.239246e-04 0.000000e+00  6.716482e-01 -2.330265e-05 0.000000e+00  6.716775e-01 -8.914644e-06 0.000000e+00  0.000000e+00 0.000000e+00 0.000000e+00  1.435452e+00 -9.271602e-05 0.000000e+00  1.143657e+00 -2.806705e-05 0.000000e+00  1.434736e+00 -3.364741e-05 0.000000e+00  6.690647e-01 -1.736464e-06 0.000000e+00  6.690657e-01 1.162525e-06 0.000000e+00  0.000000e+00 0.000000e+00 0.000000e+00  1.376326e+00 -5.060678e-06 0.000000e+00  1.192391e+00 1.254644e-06 0.000000e+00  7.469023e-01 2.243530e-06 0.000000e+00  6.332217e-01 -2.366175e-03 0.000000e+00  6.298117e-01 -2.229579e-03 0.000000e+00  0.000000e+00 0.000000e+00 0.000000e+00  1.470793e+00 -5.168490e-03 0.000000e+00  1.393105e+00 -5.855682e-03 0.000000e+00  1.456492e+00 -4.790215e-03 0.000000e+00  1.210715e+00 -3.865642e-03 0.000000e+00  6.741511e-01 1.828060e-06 0.000000e+00  0.000000e+00 0.000000e+00 0.000000e+00  1.195481e+00 5.428104e-06 0.000000e+00  1.443092e+00 7.327877e-06 0.000000e+00  7.470942e-01 -7.364493e-02 0.000000e+00  6.175798e-01 -3.879824e-02 0.000000e+00  0.000000e+00 0.000000e+00 0.000000e+00  7.394241e-01 -1.211192e-02 0.000000e+00  7.277741e-01 -4.687063e-03 0.000000e+00  0.000000e+00 0.000000e+00 0.000000e+00  1.189455e+00 -7.402446e-03 0.000000e+00  1.424344e+00 -1.425837e-02 0.000000e+00  1.487689e+00 -9.225910e-03 0.000000e+00  5.544392e-01 -1.817295e-02 0.000000e+00  0.000000e+00 0.000000e+00 0.000000e+00  1.111681e+00 -5.763623e-02 0.000000e+00  1.285176e+00 -1.572001e-01 0.000000e+00  1.305046e+00 -1.966563e-01 0.000000e+00  4.367742e-01 2.647414e-01 0.000000e+00  9.424263e-01 3.965916e-01 0.000000e+00  1.063179e+00 6.459413e-01 0.000000e+00  1.280655e+00 -4.728918e-02 0.000000e+00  0.000000e+00 0.000000e+00 0.000000e+00  9.531597e-01 1.100454e-01 0.000000e+00  1.198418e+00 7.992904e-02 0.000000e+00  0.000000e+00 0.000000e+00 0.000000e+00  6.619999e-01 -5.196064e-01 0.000000e+00  1.726953e-01 -2.386681e-01 0.000000e+00  5.894976e-01 -4.731266e-01 0.000000e+00  5.934187e-01 -3.847421e-01 0.000000e+00  1.192972e+00 2.738319e-03 0.000000e+00  1.259846e+00 3.967871e-03 0.000000e+00  1.013060e+00 2.998982e-03 0.000000e+00  1.466865e+00 1.625394e-02 0.000000e+00  1.464786e+00 4.170984e-03 0.000000e+00  1.277961e+00 6.333061e-03 0.000000e+00  1.345212e+00 1.697089e-02 0.000000e+00  5.169827e-01 -1.055733e-03 0.000000e+00  5.146468e-01 -9.849454e-04 0.000000e+00  0.000000e+00 0.000000e+00 0.000000e+00  4.797325e-01 2.074183e-03 0.000000e+00  4.815684e-01 6.367361e-04 0.000000e+00  0.000000e+00 0.000000e+00 0.000000e+00  9.267430e-01 2.498378e-03 0.000000e+00  4.525313e-01 2.186769e-07 0.000000e+00  4.525307e-01 2.061735e-07 0.000000e+00  0.000000e+00 0.000000e+00 0.000000e+00  9.855196e-01 8.617727e-07 0.000000e+00  6.562500e-01 4.184010e-07 0.000000e+00  9.017288e-01 1.029661e-06 0.000000e+00  1.418784e+00 -9.811136e-04 0.000000e+00  1.177936e+00 1.567002e-03 0.000000e+00  1.382808e+00 9.550378e-03 0.000000e+00  4.182054e-01 -6.500544e-04 0.000000e+00  4.164549e-01 -5.131711e-04 0.000000e+00  0.000000e+00 0.000000e+00 0.000000e+00  1.092746e+00 -4.174903e-03 0.000000e+00  9.294932e-01 -2.251351e-03 0.000000e+00  1.422202e+00 -1.753986e-03 0.000000e+00  1.259442e+00 6.432907e-04 0.000000e+00  8.460229e-01 -2.728807e-03 0.000000e+00  1.151495e+00 -4.976068e-03 0.000000e+00  1.171445e+00 1.425729e-06 0.000000e+00  1.224896e+00 2.064235e-06 0.000000e+00  2.228607e-01 -3.930993e-02 0.000000e+00  9.067545e-02 -1.153590e-01 0.000000e+00  0.000000e+00 0.000000e+00 0.000000e+00  4.607791e-01 -1.445334e-01 0.000000e+00  1.499693e+00 2.521924e-06 0.000000e+00  1.461569e+00 3.398758e-06 0.000000e+00  5.333673e-01 7.383662e-04 0.000000e+00  5.354780e-01 1.273287e-03 0.000000e+00  0.000000e+00 0.000000e+00 0.000000e+00  1.221344e+00 -5.103458e-03 0.000000e+00  9.838487e-01 -5.189203e-03 0.000000e+00  1.289898e+00 -9.439969e-03 0.000000e+00  6.865998e-01 8.376094e-04 0.000000e+00  0.000000e+00 0.000000e+00 0.000000e+00  7.138647e-01 5.029217e-03 0.000000e+00  1.258195e+00 -5.211525e-03 0.000000e+00  1.007154e+00 -4.173586e-03 0.000000e+00  1.309795e+00 -6.376399e-03 0.000000e+00  1.407698e+00 -4.756552e-01 0.000000e+00  1.874343e+00 -2.967755e-01 0.000000e+00  1.856184e+00 -1.622666e-01 0.000000e+00  1.287652e+00 2.284994e-03 0.000000e+00  1.414186e+00 -7.985334e-03 0.000000e+00  1.480821e+00 -4.752791e-03 0.000000e+00  1.469644e+00 -7.332748e-03 0.000000e+00  1.944681e+00 -8.312753e-02 0.000000e+00  1.073212e+00 -2.694321e-01 0.000000e+00  7.807826e-01 -4.707031e-01 0.000000e+00  0.000000e+00 0.000000e+00 0.000000e+00  1.198008e+00 3.163138e-02 0.000000e+00  1.363876e+00 3.101777e-02 0.000000e+00  5.252793e-01 1.242651e-06 0.000000e+00  5.252817e-01 9.671025e-07 0.000000e+00  0.000000e+00 0.000000e+00 0.000000e+00  1.085157e+00 3.728399e-06 0.000000e+00  7.228701e-01 1.324963e-06 0.000000e+00  1.056434e+00 4.548522e-06 0.000000e+00  1.312733e+00 6.563611e-06 0.000000e+00  1.384648e+00 -7.739976e-06 0.000000e+00  1.429324e+00 -1.589894e-03 0.000000e+00  5.830635e-01 7.458760e-04 0.000000e+00  5.845977e-01 7.054353e-04 0.000000e+00  0.000000e+00 0.000000e+00 0.000000e+00  9.799741e-01 2.147326e-03 0.000000e+00  1.220779e+00 1.952065e-03 0.000000e+00  1.332522e+00 8.046277e-04 0.000000e+00  1.109239e+00 1.719290e-03 0.000000e+00  1.332256e+00 3.324371e-01 0.000000e+00  8.387523e-01 1.051806e-01 0.000000e+00  6.680674e-01 5.618476e-02 0.000000e+00  0.000000e+00 0.000000e+00 0.000000e+00  1.151130e+00 1.623035e-01 0.000000e+00  7.774432e-01 4.494482e-02 0.000000e+00  1.292700e+00 4.219103e-01 0.000000e+00  1.447609e+00 5.050264e-01 0.000000e+00  1.090726e+00 5.901343e-01 0.000000e+00  1.524138e+00 5.081195e-01 0.000000e+00  1.430389e+00 3.558883e-01 0.000000e+00  1.182862e+00 1.946603e-01 0.000000e+00  6.689733e-01 3.953483e-01 0.000000e+00  5.827809e-01 7.239820e-04 0.000000e+00  0.000000e+00 0.000000e+00 0.000000e+00  7.145036e-01 1.223457e-03 0.000000e+00  1.756097e+00 2.971091e-01 0.000000e+00  7.162430e-01 1.066977e-03 0.000000e+00  0.000000e+00 0.000000e+00 0.000000e+00  1.557894e+00 2.216628e-02 0.000000e+00  1.798972e+00 -2.383724e-01 0.000000e+00  1.363395e+00 2.576614e-01 0.000000e+00  1.406250e+00 0.000000e+00 0.000000e+00  5.455434e-01 4.615533e-01 0.000000e+00  4.807032e-01 4.000963e-01 0.000000e+00  0.000000e+00 0.000000e+00 0.000000e+00  7.554201e-01 4.796556e-01 0.000000e+00  2.919612e-01 -2.442067e-01 0.000000e+00  2.557223e-01 -4.247352e-02 0.000000e+00  0.000000e+00 0.000000e+00 0.000000e+00  6.270503e-01 -4.882529e-01 0.000000e+00  5.241428e-01 -4.191017e-01 0.000000e+00  1.238379e+00 1.929814e-02 0.000000e+00  1.332944e+00 6.659634e-01 0.000000e+00  1.435914e+00 6.771097e-01 0.000000e+00  8.080390e-01 1.787397e-01 0.000000e+00  8.955575e-01 -9.000270e-02 0.000000e+00  1.020588e+00 3.418516e-01 0.000000e+00  9.711943e-01 -1.956860e-01 0.000000e+00  7.139118e-01 -1.031810e-01 0.000000e+00  0.000000e+00 0.000000e+00 0.000000e+00  1.155345e+00 -2.631009e-01 0.000000e+00  6.562500e-01 0.000000e+00 0.000000e+00  1.376957e+00 -4.460701e-02 0.000000e+00  1.422518e+00 7.103641e-04 0.000000e+00  1.319094e+00 6.903549e-02 0.000000e+00  1.472133e+00 4.743314e-01 0.000000e+00  1.122556e+00 -1.504009e-01 0.000000e+00  1.382486e+00 -4.394398e-01 0.000000e+00  1.336243e+00 -2.220743e-01 0.000000e+00  1.406250e+00 0.000000e+00 0.000000e+00  1.311158e+00 -6.084908e-01 0.000000e+00  1.605141e+00 -4.959424e-01 0.000000e+00  1.116949e+00 -4.873080e-01 0.000000e+00  7.273930e-01 -4.135219e-01 0.000000e+00  0.000000e+00 0.000000e+00 0.000000e+00  1.205986e+00 3.070947e-01 0.000000e+00  1.270742e+00 -6.127115e-02 0.000000e+00  1.269460e+00 5.481