<?xml version="1.0"?>
<VTKFile type="UnstructuredGrid"  version="0.1"  >
<UnstructuredGrid>
<Piece  NumberOfPoints="2868" NumberOfCells="5400">
<Points>
<DataArray  type="Float32"  NumberOfComponents="3"  format="ascii">0.534923 0.326073 0  0.510642 0.314196 0  0.466125 0.293082 0  0.436448 0.281205 0  0.409468 0.275927 0  0.368998 0.270648 0  0.35281 0.275927 0  0.381139 0.302319 0  0.405421 0.326073 0  0.410817 0.33531 0  0.408119 0.349826 0  0.400025 0.357744 0  0.375743 0.368301 0  0.329878 0.392055 0  0.297502 0.432963 0  0.282663 0.476511 0  0.285361 0.524018 0  0.298851 0.572845 0  0.317737 0.604516 0  0.337972 0.636187 0  0.360904 0.674457 0  0.368998 0.69953 0  0.359555 0.721964 0  0.360904 0.757594 0  0.370347 0.766831 0  0.381139 0.762872 0  0.390582 0.741758 0  0.404072 0.720644 0  0.424307 0.707448 0  0.447239 0.702169 0  0.480964 0.704808 0  0.479615 0.688973 0  0.468823 0.675776 0  0.447239 0.669178 0  0.428354 0.669178 0  0.410817 0.6639 0  0.404072 0.653343 0  0.395978 0.628269 0  0.387884 0.59132 0  0.389233 0.576804 0  0.397327 0.557009 0  0.410817 0.547772 0  0.424307 0.546452 0  0.437797 0.55305 0  0.44589 0.566247 0  0.441843 0.582082 0  0.439145 0.597918 0  0.449937 0.609795 0  0.468823 0.603196 0  0.479615 0.59 0  0.489058 0.570205 0  0.494454 0.546452 0  0.505246 0.522699 0  0.522783 0.509502 0  0.55246 0.494986 0  0.586185 0.484429 0  0.615863 0.48047 0  0.64554 0.473872 0  0.667124 0.461995 0  0.683312 0.451438 0  0.696802 0.435603 0  0.703547 0.417128 0  0.71164 0.393374 0  0.718385 0.37226 0  0.72513 0.364342 0  0.739969 0.353785 0  0.745365 0.344548 0  0.745365 0.327393 0  0.737271 0.318155 0  0.718385 0.316835 0  0.700849 0.319475 0  0.677916 0.318155 0  0.650936 0.316835 0  0.610467 0.318155 0  0.57944 0.324753 0  0.559205 0.328712 0  0.53897 0.326073 0  1 1 0  1 0 0  0 0 0  0 1 0  0.532238 0.32476 0  0.528748 0.323052 0  0.52421 0.320833 0  0.518311 0.317947 0  0.503447 0.310783 0  0.494093 0.306347 0  0.481933 0.30058 0  0.452151 0.28749 0  0.392327 0.273691 0  0.379141 0.271971 0  0.360474 0.283066 0  0.369797 0.291752 0  0.391424 0.31238 0  0.399335 0.32012 0  0.40958 0.341964 0  0.393939 0.36039 0  0.386028 0.36383 0  0.364248 0.374254 0  0.349304 0.381994 0  0.315801 0.409841 0  0.292986 0.551616 0  0.350934 0.657818 0  0.360127 0.737055 0  0.360566 0.748664 0  0.385245 0.753692 0  0.396447 0.732578 0  0.466301 0.703661 0  0.459439 0.672908 0  0.418442 0.666195 0  0.400553 0.642441 0  0.39255 0.612619 0  0.389913 0.60058 0  0.392752 0.568197 0  0.444131 0.573132 0  0.458149 0.606926 0  0.500554 0.533026 0  0.571522 0.489019 0  0.632637 0.476741 0  0.689177 0.444553 0  0.708121 0.403702 0  0.715453 0.38144 0  0.732406 0.359166 0  0.745365 0.337089 0  0.72906 0.317581 0  0.629879 0.317522 0  0.59293 0.321884 0  0.568003 0.326991 0  0.55202 0.327775 0  0.546493 0.327054 0  0.542241 0.326499 0  1 0.9 0  1 0.8 0  1 0.7 0  1 0.6 0  1 0.5 0  1 0.4 0  1 0.3 0  1 0.2 0  1 0.1 0  0.9 0 0  0.8 0 0  0.7 0 0  0.6 0 0  0.5 0 0  0.4 0 0  0.3 0 0  0.2 0 0  0.1 0 0  0.1 1 0  0.2 1 0  0.3 1 0  0.4 1 0  0.5 1 0  0.6 1 0  0.7 1 0  0.8 1 0  0.9 1 0  0 0.1 0  0 0.2 0  0 0.3 0  0 0.4 0  0 0.5 0  0 0.6 0  0 0.7 0  0 0.8 0  0 0.9 0  0.535686 0.503191 0  0.753987 0.733359 0  0.167145 0.741436 0  0.173378 0.257204 0  0.733497 0.159862 0  0.554096 0.15788 0  0.849187 0.479053 0  0.488793 0.838452 0  0.138507 0.5592 0  0.30686 0.154944 0  0.348904 0.890523 0  0.058006 0.065099 0  0.069849 0.937917 0  0.93633 0.939704 0  0.934625 0.053613 0  0.343397 0.333452 0  0.473272 0.639943 0  0.433266 0.638072 0  0.415174 0.58269 0  0.533435 0.545042 0  0.390848 0.340652 0  0.53655 0.320242 0  0.127966 0.393775 0  0.83861 0.850455 0  0.635242 0.85513 0  0.852158 0.633441 0  0.653427 0.626848 0  0.861226 0.24292 0  0.166128 0.12976 0  0.216875 0.869871 0  0.458305 0.11179 0  0.84446 0.101633 0  0.202024 0.642528 0  0.644825 0.115855 0  0.671342 0.218358 0  0.251354 0.286186 0  0.262388 0.75153 0  0.063044 0.751571 0  0.068189 0.242962 0  0.435781 0.905395 0  0.934144 0.451133 0  0.568393 0.237622 0  0.814984 0.395506 0  0.752951 0.517227 0  0.456254 0.780699 0  0.073352 0.531116 0  0.337731 0.206071 0  0.363213 0.960371 0  0.330742 0.363592 0  0.516613 0.55705 0  0.369057 0.332992 0  0.500926 0.617309 0  0.498004 0.665534 0  0.412142 0.61178 0  0.454233 0.636604 0  0.422782 0.567496 0  0.541193 0.52148 0  0.439761 0.65557 0  0.5163 0.533672 0  0.414775 0.64562 0  0.40073 0.576135 0  0.430362 0.588034 0  0.385432 0.351492 0  0.400298 0.335397 0  0.398325 0.348194 0  0.528702 0.314885 0  0.540814 0.322334 0  0.534477 0.322953 0  0.619095 0.743583 0  0.885162 0.737972 0  0.08076 0.668849 0  0.90734 0.36634 0  0.094687 0.868937 0  0.759838 0.912152 0  0.901518 0.540898 0  0.747285 0.607479 0  0.229182 0.071641 0  0.069154 0.450091 0  0.244775 0.203309 0  0.076534 0.331755 0  0.897847 0.167826 0  0.578909 0.911415 0  0.077133 0.146341 0  0.477215 0.203448 0  0.922631 0.869341 0  0.517415 0.074785 0  0.297026 0.827793 0  0.783271 0.246505 0  0.74519 0.061079 0  0.36033 0.069068 0  0.210313 0.475228 0  0.859426 0.928758 0  0.574548 0.609182 0  0.243069 0.383398 0  0.283099 0.934598 0  0.417416 0.843141 0  0.643942 0.553164 0  0.112687 0.079336 0  0.281357 0.658386 0  0.765043 0.436177 0  0.611361 0.198486 0  0.234496 0.58911 0  0.206479 0.702638 0  0.679608 0.155818 0  0.62682 0.259978 0  0.690538 0.264164 0  0.448938 0.956308 0  0.808154 0.328403 0  0.379583 0.91913 0  0.308083 0.297769 0  0.312358 0.730249 0  0.563101 0.278576 0  0.435597 0.746198 0  0.385475 0.225229 0  0.572248 0.518034 0  0.357864 0.35422 0  0.497647 0.641694 0  0.458101 0.655768 0  0.360474 0.310727 0  0.467038 0.620139 0  0.47798 0.659909 0  0.41102 0.628072 0  0.48324 0.609015 0  0.427544 0.617941 0  0.388633 0.328253 0  0.405336 0.599404 0  0.408351 0.565178 0  0.42395 0.600985 0  0.431562 0.576523 0  0.424905 0.655198 0  0.398064 0.58782 0  0.427739 0.557934 0  0.519291 0.303443 0  0.53142 0.320293 0  0.5449 0.323642 0  0.537166 0.323513 0  0.153974 0.920841 0  0.918186 0.67343 0  0.759946 0.820588 0  0.537526 0.783091 0  0.816532 0.545843 0  0.813991 0.178083 0  0.836774 0.702023 0  0.149815 0.318856 0  0.662287 0.923338 0  0.680146 0.791192 0  0.708961 0.663172 0  0.937278 0.287318 0  0.574622 0.688166 0  0.589474 0.076262 0  0.502822 0.926683 0  0.222269 0.811068 0  0.380457 0.164786 0  0.15321 0.684154 0  0.458063 0.051413 0  0.161702 0.056026 0  0.199351 0.198818 0  0.298946 0.095532 0  0.902465 0.795949 0  0.121139 0.791477 0  0.906269 0.112287 0  0.056109 0.822332 0  0.512172 0.13237 0  0.940964 0.741805 0  0.888887 0.408777 0  0.354543 0.825964 0  0.808736 0.068638 0  0.068507 0.394071 0  0.719105 0.563843 0  0.247287 0.149664 0  0.293062 0.237128 0  0.240524 0.434997 0  0.141255 0.623289 0  0.945202 0.160621 0  0.502914 0.247629 0  0.144669 0.480811 0  0.665025 0.060817 0  0.728047 0.224344 0  0.861995 0.313312 0  0.200068 0.534235 0  0.253262 0.965623 0  0.893804 0.49307 0  0.604391 0.572456 0  0.947088 0.345347 0  0.439372 0.227307 0  0.629847 0.159823 0  0.273405 0.880181 0  0.302744 0.776823 0  0.781502 0.295365 0  0.275342 0.349602 0  0.728385 0.472798 0  0.229136 0.246478 0  0.807794 0.480346 0  0.709476 0.112786 0  0.275506 0.694991 0  0.771674 0.394419 0  0.449715 0.861802 0  0.419159 0.799696 0  0.674851 0.503139 0  0.280443 0.61016 0  0.572443 0.192538 0  0.393113 0.87525 0  0.405555 0.948428 0  0.330942 0.934103 0  0.540509 0.597101 0  0.312763 0.668931 0  0.254368 0.540179 0  0.595265 0.25915 0  0.606679 0.234099 0  0.657131 0.279138 0  0.722458 0.279478 0  0.333 0.308056 0  0.351529 0.246142 0  0.455714 0.725794 0  0.585239 0.295143 0  0.340062 0.72492 0  0.545593 0.293773 0  0.555449 0.545426 0  0.414311 0.737314 0  0.590854 0.502323 0  0.350507 0.368444 0  0.484423 0.625665 0  0.483899 0.674542 0  0.378137 0.317274 0  0.446416 0.646404 0  0.373532 0.347654 0  0.446876 0.619769 0  0.466106 0.666068 0  0.437545 0.609254 0  0.434988 0.565726 0  0.41462 0.656829 0  0.418803 0.556961 0  0.398425 0.327446 0  0.517803 0.310421 0  0.549516 0.322918 0  0.57701 0.842889 0  0.829127 0.773906 0  0.643235 0.684732 0  0.134281 0.207734 0  0.865997 0.055966 0  0.680959 0.723345 0  0.165229 0.841555 0  0.54558 0.959672 0  0.783726 0.656439 0  0.913315 0.595533 0  0.699439 0.860667 0  0.785839 0.125076 0  0.551673 0.037713 0  0.920097 0.223214 0  0.206406 0.299726 0  0.087064 0.596401 0  0.935644 0.394252 0  0.964557 0.252582 0  0.230124 0.928346 0  0.120579 0.271764 0  0.857215 0.524082 0  0.767098 0.555147 0  0.936094 0.507131 0  0.804064 0.59585 0  0.700565 0.608273 0  0.429773 0.174231 0  0.117746 0.727333 0  0.538962 0.730231 0  0.862761 0.359173 0  0.821444 0.284046 0  0.193552 0.35818 0  0.234923 0.505555 0  0.193209 0.421217 0  0.220144 0.755896 0  0.594015 0.131642 0  0.283813 0.195855 0  0.517519 0.213961 0  0.553509 0.639116 0  0.280391 0.378018 0  0.852183 0.436817 0  0.746983 0.197173 0  0.821806 0.221318 0  0.449853 0.828453 0  0.883758 0.453926 0  0.183484 0.589542 0  0.348384 0.129314 0  0.255254 0.838525 0  0.504849 0.798516 0  0.320344 0.863432 0  0.611669 0.525425 0  0.265864 0.804962 0  0.72056 0.521442 0  0.613372 0.610122 0  0.481262 0.881068 0  0.655778 0.191988 0  0.701921 0.196918 0  0.565826 0.573181 0  0.46914 0.240927 0  0.343219 0.173284 0  0.888786 0.278502 0  0.244113 0.675093 0  0.739546 0.417914 0  0.784023 0.355942 0  0.326805 0.265549 0  0.248616 0.634948 0  0.789183 0.413964 0  0.764107 0.476606 0  0.32086 0.698956 0  0.334735 0.791464 0  0.53448 0.258468 0  0.395208 0.824575 0  0.309962 0.638947 0  0.263264 0.22712 0  0.756395 0.267254 0  0.639281 0.224663 0  0.358631 0.85116 0  0.309751 0.332089 0  0.663461 0.246436 0  0.424083 0.871774 0  0.269645 0.445719 0  0.272183 0.572741 0  0.624492 0.294638 0  0.717827 0.250266 0  0.408215 0.763744 0  0.485997 0.274924 0  0.288138 0.274311 0  0.410524 0.242487 0  0.741513 0.385737 0  0.691284 0.483519 0  0.515531 0.581849 0  0.463005 0.753402 0  0.681919 0.
[...]
<PointData  Vectors="u"> 
<DataArray  type="Float32"  Name="u"  NumberOfComponents="3" format="ascii">4.920200e-03 2.396292e-01 0.000000e+00  6.350410e-03 2.465711e-01 0.000000e+00  9.339802e-03 2.581538e-01 0.000000e+00  1.026548e-02 2.670641e-01 0.000000e+00  1.065860e-02 2.766855e-01 0.000000e+00  1.059174e-02 2.959436e-01 0.000000e+00  1.314620e-02 3.124265e-01 0.000000e+00  1.545992e-02 3.315467e-01 0.000000e+00  1.995517e-02 3.355071e-01 0.000000e+00  2.123748e-02 3.355172e-01 0.000000e+00  2.288354e-02 3.355019e-01 0.000000e+00  2.349698e-02 3.350729e-01 0.000000e+00  2.397396e-02 3.310449e-01 0.000000e+00  2.137214e-02 3.240385e-01 0.000000e+00  1.419198e-02 3.254596e-01 0.000000e+00  5.769825e-03 3.311329e-01 0.000000e+00  -3.617812e-03 3.390865e-01 0.000000e+00  -1.262622e-02 3.484685e-01 0.000000e+00  -1.806591e-02 3.556479e-01 0.000000e+00  -2.186049e-02 3.617190e-01 0.000000e+00  -2.444902e-02 3.667212e-01 0.000000e+00  -2.529336e-02 3.681751e-01 0.000000e+00  -2.603796e-02 3.696573e-01 0.000000e+00  -3.003606e-02 3.760192e-01 0.000000e+00  -3.363539e-02 3.825283e-01 0.000000e+00  -3.674347e-02 3.894258e-01 0.000000e+00  -3.931318e-02 3.969935e-01 0.000000e+00  -3.853778e-02 4.026329e-01 0.000000e+00  -3.671547e-02 4.091542e-01 0.000000e+00  -3.497730e-02 4.180877e-01 0.000000e+00  -3.179103e-02 4.537111e-01 0.000000e+00  -3.220813e-02 4.939496e-01 0.000000e+00  -3.200213e-02 5.334903e-01 0.000000e+00  -3.488741e-02 5.754444e-01 0.000000e+00  -3.853706e-02 5.978375e-01 0.000000e+00  -4.314789e-02 6.106526e-01 0.000000e+00  -4.741763e-02 6.161318e-01 0.000000e+00  -5.941650e-02 6.293463e-01 0.000000e+00  -7.696912e-02 6.432015e-01 0.000000e+00  -8.022620e-02 6.450070e-01 0.000000e+00  -8.194619e-02 6.467010e-01 0.000000e+00  -8.170496e-02 6.479222e-01 0.000000e+00  -8.130277e-02 6.487503e-01 0.000000e+00  -8.019311e-02 6.486883e-01 0.000000e+00  -7.690892e-02 6.475064e-01 0.000000e+00  -6.912933e-02 6.455903e-01 0.000000e+00  -5.261460e-02 6.373371e-01 0.000000e+00  -2.142740e-02 6.130708e-01 0.000000e+00  1.761987e-02 5.853540e-01 0.000000e+00  4.872145e-02 5.691468e-01 0.000000e+00  7.771289e-02 5.528457e-01 0.000000e+00  9.519544e-02 5.382050e-01 0.000000e+00  9.813886e-02 5.243623e-01 0.000000e+00  9.457977e-02 5.067689e-01 0.000000e+00  8.634717e-02 4.654840e-01 0.000000e+00  7.755210e-02 4.114213e-01 0.000000e+00  7.269303e-02 3.597283e-01 0.000000e+00  6.661593e-02 3.027684e-01 0.000000e+00  5.914778e-02 2.602952e-01 0.000000e+00  5.302160e-02 2.293363e-01 0.000000e+00  4.574360e-02 2.002500e-01 0.000000e+00  3.935414e-02 1.813029e-01 0.000000e+00  3.147863e-02 1.649035e-01 0.000000e+00  2.525540e-02 1.551879e-01 0.000000e+00  2.261036e-02 1.510923e-01 0.000000e+00  1.768138e-02 1.405475e-01 0.000000e+00  1.399477e-02 1.340944e-01 0.000000e+00  8.236656e-03 1.303477e-01 0.000000e+00  4.819227e-03 1.339258e-01 0.000000e+00  2.831978e-03 1.439719e-01 0.000000e+00  2.352137e-03 1.527034e-01 0.000000e+00  1.403787e-03 1.639919e-01 0.000000e+00  4.059838e-04 1.786512e-01 0.000000e+00  1.522353e-04 2.024400e-01 0.000000e+00  2.005933e-03 2.207879e-01 0.000000e+00  3.650619e-03 2.306479e-01 0.000000e+00  4.706278e-03 2.384095e-01 0.000000e+00  0.000000e+00 0.000000e+00 0.000000e+00  0.000000e+00 0.000000e+00 0.000000e+00  3.135459e-02 3.212142e-01 0.000000e+00  -1.373329e-02 3.612064e-01 0.000000e+00  4.972975e-03 2.403401e-01 0.000000e+00  5.119575e-03 2.413637e-01 0.000000e+00  5.375471e-03 2.427056e-01 0.000000e+00  5.772243e-03 2.444177e-01 0.000000e+00  6.912301e-03 2.485103e-01 0.000000e+00  7.622621e-03 2.509332e-01 0.000000e+00  8.457223e-03 2.540095e-01 0.000000e+00  9.878401e-03 2.620798e-01 0.000000e+00  1.072919e-02 2.836042e-01 0.000000e+00  1.066855e-02 2.897615e-01 0.000000e+00  1.265311e-02 3.224940e-01 0.000000e+00  1.374024e-02 3.275434e-01 0.000000e+00  1.734414e-02 3.339862e-01 0.000000e+00  1.888432e-02 3.351333e-01 0.000000e+00  2.202638e-02 3.355178e-01 0.000000e+00  2.367931e-02 3.343841e-01 0.000000e+00  2.387471e-02 3.330743e-01 0.000000e+00  2.381940e-02 3.287343e-01 0.000000e+00  2.316029e-02 3.261450e-01 0.000000e+00  1.853066e-02 3.238303e-01 0.000000e+00  -8.911846e-03 3.442959e-01 0.000000e+00  -2.352352e-02 3.649048e-01 0.000000e+00  -2.738489e-02 3.716719e-01 0.000000e+00  -2.868468e-02 3.735658e-01 0.000000e+00  -3.868177e-02 3.935436e-01 0.000000e+00  -3.920613e-02 3.996020e-01 0.000000e+00  -3.399159e-02 4.296105e-01 0.000000e+00  -3.243846e-02 5.545411e-01 0.000000e+00  -4.120920e-02 6.060470e-01 0.000000e+00  -5.213926e-02 6.215608e-01 0.000000e+00  -6.771408e-02 6.366802e-01 0.000000e+00  -7.358647e-02 6.410647e-01 0.000000e+00  -8.133154e-02 6.458215e-01 0.000000e+00  -7.446820e-02 6.471072e-01 0.000000e+00  -3.058061e-03 6.014133e-01 0.000000e+00  9.827926e-02 5.301272e-01 0.000000e+00  8.132258e-02 4.354648e-01 0.000000e+00  6.933918e-02 3.281550e-01 0.000000e+00  5.004938e-02 2.162105e-01 0.000000e+00  3.483632e-02 1.713629e-01 0.000000e+00  2.781433e-02 1.587334e-01 0.000000e+00  2.036695e-02 1.465599e-01 0.000000e+00  1.155675e-02 1.314968e-01 0.000000e+00  3.712979e-03 1.383151e-01 0.000000e+00  1.071870e-04 1.907456e-01 0.000000e+00  1.030786e-03 2.131629e-01 0.000000e+00  2.947938e-03 2.267311e-01 0.000000e+00  3.959697e-03 2.334460e-01 0.000000e+00  4.256817e-03 2.356283e-01 0.000000e+00  4.504011e-03 2.372294e-01 0.000000e+00  0.000000e+00 0.000000e+00 0.000000e+00  0.000000e+00 0.000000e+00 0.000000e+00  0.000000e+00 0.000000e+00 0.000000e+00  0.000000e+00 0.000000e+00 0.000000e+00  0.000000e+00 0.000000e+00 0.000000e+00  0.000000e+00 0.000000e+00 0.000000e+00  0.000000e+00 0.000000e+00 0.000000e+00  0.000000e+00 0.000000e+00 0.000000e+00  0.000000e+00 0.000000e+00 0.000000e+00  5.754822e-04 5.133179e-02 0.000000e+00  1.711415e-03 1.020444e-01 0.000000e+00  3.634210e-03 1.506771e-01 0.000000e+00  6.567333e-03 1.956641e-01 0.000000e+00  1.048424e-02 2.353653e-01 0.000000e+00  1.525672e-02 2.685903e-01 0.000000e+00  2.081245e-02 2.937926e-01 0.000000e+00  2.606670e-02 3.098503e-01 0.000000e+00  2.975882e-02 3.182288e-01 0.000000e+00  -1.522127e-02 3.643645e-01 0.000000e+00  -1.770513e-02 3.711997e-01 0.000000e+00  -1.931577e-02 3.797278e-01 0.000000e+00  -1.717173e-02 3.847845e-01 0.000000e+00  -9.653732e-03 3.753499e-01 0.000000e+00  -1.743792e-04 3.408997e-01 0.000000e+00  5.649695e-03 2.806788e-01 0.000000e+00  5.919905e-03 2.014762e-01 0.000000e+00  2.827708e-03 1.087169e-01 0.000000e+00  3.379778e-02 3.225912e-01 0.000000e+00  3.697909e-02 3.250940e-01 0.000000e+00  3.738766e-02 3.281576e-01 0.000000e+00  3.303073e-02 3.319946e-01 0.000000e+00  2.426597e-02 3.370831e-01 0.000000e+00  1.343283e-02 3.433347e-01 0.000000e+00  3.133773e-03 3.498421e-01 0.000000e+00  -5.158396e-03 3.554796e-01 0.000000e+00  -1.095455e-02 3.594570e-01 0.000000e+00  9.135906e-02 4.903695e-01 0.000000e+00  2.941646e-02 2.270148e-01 0.000000e+00  -1.121889e-02 3.565122e-01 0.000000e+00  3.223769e-02 3.238804e-01 0.000000e+00  1.558228e-03 1.376885e-01 0.000000e+00  6.861030e-03 2.211280e-01 0.000000e+00  8.663966e-03 9.474671e-02 0.000000e+00  -1.465150e-02 3.990607e-01 0.000000e+00  8.204053e-03 3.402949e-01 0.000000e+00  2.086922e-02 3.029303e-01 0.000000e+00  -2.326478e-02 3.844860e-01 0.000000e+00  3.156071e-02 3.213339e-01 0.000000e+00  -1.400958e-02 3.616230e-01 0.000000e+00  1.437898e-03 6.951091e-02 0.000000e+00  2.328278e-04 3.387392e-02 0.000000e+00  2.246931e-02 3.252675e-01 0.000000e+00  -1.251166e-02 5.496750e-01 0.000000e+00  -3.674262e-02 6.043199e-01 0.000000e+00  -7.477828e-02 6.449046e-01 0.000000e+00  8.387033e-02 5.041976e-01 0.000000e+00  2.190434e-02 3.338651e-01 0.000000e+00  5.025797e-03 2.388829e-01 0.000000e+00  2.800514e-02 3.300227e-01 0.000000e+00  9.334991e-03 1.597084e-01 0.000000e+00  1.214367e-02 3.339979e-01 0.000000e+00  1.661350e-02 1.155814e-01 0.000000e+00  5.789552e-02 3.254382e-01 0.000000e+00  -5.901074e-04 7.334272e-02 0.000000e+00  2.977747e-02 3.188550e-01 0.000000e+00  -1.860886e-02 3.682341e-01 0.000000e+00  1.156913e-02 2.552277e-01 0.000000e+00  6.416157e-04 8.077349e-02 0.000000e+00  -7.086211e-03 3.498461e-01 0.000000e+00  4.042570e-03 1.795268e-01 0.000000e+00  1.684605e-03 1.690600e-01 0.000000e+00  2.887060e-02 3.215166e-01 0.000000e+00  -1.899300e-02 3.643316e-01 0.000000e+00  -5.059529e-03 3.534790e-01 0.000000e+00  3.560524e-02 3.259969e-01 0.000000e+00  -1.846888e-02 3.910279e-01 0.000000e+00  1.185043e-04 3.335884e-02 0.000000e+00  4.721125e-03 2.195233e-01 0.000000e+00  5.700339e-03 1.086914e-01 0.000000e+00  3.095887e-02 1.789235e-01 0.000000e+00  -2.629699e-02 4.101715e-01 0.000000e+00  1.638224e-02 3.385544e-01 0.000000e+00  1.756182e-02 3.010228e-01 0.000000e+00  -1.934596e-02 3.849853e-01 0.000000e+00  2.322864e-02 3.248811e-01 0.000000e+00  8.085099e-02 5.261633e-01 0.000000e+00  2.116214e-02 3.297535e-01 0.000000e+00  2.135399e-02 5.323463e-01 0.000000e+00  -2.004282e-03 4.983592e-01 0.000000e+00  -5.923828e-02 6.340494e-01 0.000000e+00  -2.349100e-02 5.787995e-01 0.000000e+00  -7.891132e-02 6.472698e-01 0.000000e+00  8.829538e-02 4.884580e-01 0.000000e+00  -3.544460e-02 5.892422e-01 0.000000e+00  9.255154e-02 5.199522e-01 0.000000e+00  -4.507772e-02 6.147772e-01 0.000000e+00  -7.922354e-02 6.455901e-01 0.000000e+00  -6.784434e-02 6.433747e-01 0.000000e+00  2.309391e-02 3.329899e-01 0.000000e+00  2.119669e-02 3.350329e-01 0.000000e+00  2.276433e-02 3.348556e-01 0.000000e+00  5.659923e-03 2.411388e-01 0.000000e+00  4.697149e-03 2.375203e-01 0.000000e+00  5.024792e-03 2.396684e-01 0.000000e+00  3.115749e-02 3.608578e-01 0.000000e+00  9.114058e-03 1.033515e-01 0.000000e+00  7.660875e-04 3.483549e-01 0.000000e+00  -1.271907e-03 4.959649e-02 0.000000e+00  -1.299511e-02 3.602921e-01 0.000000e+00  9.582641e-03 2.342872e-01 0.000000e+00  7.952730e-03 6.213862e-02 0.000000e+00  3.948276e-02 2.089356e-01 0.000000e+00  2.525081e-02 3.098096e-01 0.000000e+00  2.553835e-02 3.338260e-01 0.000000e+00  2.744733e-02 3.166171e-01 0.000000e+00  3.383213e-02 3.287132e-01 0.000000e+00  -1.722951e-04 5.340917e-02 0.000000e+00  1.575818e-04 3.596642e-01 0.000000e+00  3.339981e-02 3.230205e-01 0.000000e+00  1.009923e-02 2.521818e-01 0.000000e+00  2.505535e-03 8.017060e-02 0.000000e+00  9.367159e-03 2.320332e-01 0.000000e+00  -2.366351e-02 3.743302e-01 0.000000e+00  1.175251e-03 1.140477e-01 0.000000e+00  2.366235e-03 1.302261e-01 0.000000e+00  1.716375e-02 2.835950e-01 0.000000e+00  1.368589e-02 3.326959e-01 0.000000e+00  5.003403e-03 1.451119e-01 0.000000e+00  5.878591e-02 4.394163e-01 0.000000e+00  2.399200e-02 3.260238e-01 0.000000e+00  -2.026759e-02 3.774689e-01 0.000000e+00  -2.506867e-02 3.953752e-01 0.000000e+00  6.604751e-02 3.270839e-01 0.000000e+00  3.045406e-02 3.199063e-01 0.000000e+00  -1.677250e-02 3.578157e-01 0.000000e+00  1.734813e-02 1.484194e-01 0.000000e+00  3.493468e-03 1.978104e-01 0.000000e+00  -5.351973e-03 3.455452e-01 0.000000e+00  -1.197918e-02 3.558063e-01 0.000000e+00  2.504642e-03 1.640480e-01 0.000000e+00  1.293559e-03 1.921104e-01 0.000000e+00  1.486040e-03 1.593090e-01 0.000000e+00  -1.485507e-02 3.862141e-01 0.000000e+00  2.865952e-03 1.055471e-01 0.000000e+00  -2.094972e-02 3.873846e-01 0.000000e+00  2.492030e-02 3.197530e-01 0.000000e+00  -2.213657e-02 3.674849e-01 0.000000e+00  4.104037e-03 2.249218e-01 0.000000e+00  -3.388376e-02 4.095053e-01 0.000000e+00  1.214849e-02 2.857792e-01 0.000000e+00  8.102971e-02 4.413195e-01 0.000000e+00  2.317319e-02 3.280574e-01 0.000000e+00  5.182578e-03 5.182743e-01 0.000000e+00  -2.857473e-02 5.626512e-01 0.000000e+00  1.839579e-02 3.264099e-01 0.000000e+00  -5.500098e-03 5.726897e-01 0.000000e+00  -1.771453e-02 5.281538e-01 0.000000e+00  -5.203513e-02 6.252085e-01 0.000000e+00  1.773254e-02 5.590236e-01 0.000000e+00  -4.515454e-02 6.241728e-01 0.000000e+00  2.013174e-02 3.334748e-01 0.000000e+00  -6.924117e-02 6.404009e-01 0.000000e+00  -8.068501e-02 6.469616e-01 0.000000e+00  -5.994326e-02 6.381577e-01 0.000000e+00  -7.453502e-02 6.461340e-01 0.000000e+00  -4.014150e-02 6.044255e-01 0.000000e+00  -7.621723e-02 6.437344e-01 0.000000e+00  -8.029173e-02 6.482450e-01 0.000000e+00  6.767341e-03 2.435234e-01 0.000000e+00  5.251443e-03 2.405015e-01 0.000000e+00  4.424160e-03 2.360601e-01 0.000000e+00  4.874607e-03 2.388670e-01 0.000000e+00  -1.629228e-02 3.654289e-01 0.000000e+00  5.853215e-03 6.566671e-02 0.000000e+00  1.816652e-02 2.302921e-01 0.000000e+00  8.867404e-04 4.055320e-01 0.000000e+00  1.978179e-02 1.296585e-01 0.000000e+00  3.826485e-04 9.726565e-02 0.000000e+00  1.802185e-02 1.420685e-01 0.000000e+00  3.192587e-02 3.267153e-01 0.000000e+00  7.128533e-03 3.101612e-01 0.000000e+00  2.537089e-02 3.020288e-01 0.000000e+00  4.497047e-02 2.631606e-01 0.000000e+00  -1.363125e-03 3.154282e-02 0.000000e+00  3.566466e-02 4.158161e-01 0.000000e+00  6.467178e-03 2.028697e-01 0.000000e+00  -1.010277e-02 3.824762e-01 0.000000e+00  -1.806457e-02 3.651986e-01 0.000000e+00  1.453025e-02 2.838713e-01 0.000000e+00  -6.132260e-03 3.513997e-01 0.000000e+00  1.217308e-02 2.525602e-01 0.000000e+00  2.821544e-02 3.160476e-01 0.000000e+00  3.012504e-02 3.199995e-01 0.000000e+00  2.113355e-02 2.998474e-01 0.000000e+00  5.463813e-03 9.407119e-02 0.000000e+00  -1.099231e-02 3.575620e-01 0.000000e+00  1.540628e-04 4.886506e-02 0.000000e+00  -9.243790e-03 3.571098e-01 0.000000e+00  9.042551e-03 2.365072e-01 0.000000e+00  2.728448e-03 5.327960e-02 0.000000e+00  8.493952e-04 6.231621e-02 0.000000e+00  -2.783467e-02 3.839138e-01 0.000000e+00  1.298819e-03 9.862573e-02 0.000000e+00  3.048849e-02 3.312058e-01 0.000000e+00  4.560178e-02 2.279301e-01 0.000000e+00  2.570795e-02 3.123690e-01 0.000000e+00  2.426370e-02 3.143402e-01 0.000000e+00  1.749695e-02 3.288817e-01 0.000000e+00  5.639164e-04 3.458414e-01 0.000000e+00  -9.273042e-05 2.860775e-02 0.000000e+00  8.999304e-03 2.454091e-01 0.000000e+00  1.772564e-02 3.342939e-01 0.000000e+00  4.201442e-03 1.685962e-01 0.000000e+00  1.435778e-03 1.410345e-01 0.000000e+00  -7.184844e-04 7.479067e-02 0.000000e+00  5.868358e-03 3.382417e-01 0.000000e+00  -1.905734e-02 3.751151e-01 0.000000e+00  5.951144e-03 6.419318e-02 0.000000e+00  7.028672e-02 3.945337e-01 0.000000e+00  -2.321285e-03 2.521137e-02 0.000000e+00  1.097100e-02 2.656660e-01 0.000000e+00  3.708442e-03 1.878298e-01 0.000000e+00  -2.136837e-02 3.745642e-01 0.000000e+00  -2.339289e-02 3.705420e-01 0.000000e+00  3.006839e-03 1.164018e-01 0.000000e+00  2.563911e-02 3.236614e-01 0.000000e+00  3.231781e-02 1.884633e-01 0.000000e+00  2.965481e-02 3.206486e-01 0.000000e+00  1.427153e-02 1.252491e-01 0.000000e+00  2.505614e-03 1.486929e-01 0.000000e+00  -1.777477e-02 3.608624e-01 0.000000e+00  1.259453e-02 1.349286e-01 0.000000e+00  -1.995838e-02 3.959727e-01 0.000000e+00  -2.931168e-02 3.994816e-01 0.000000e+00  5.592903e-02 2.646641e-01 0.000000e+00  -1.353822e-02 3.519018e-01 0.000000e+00  5.413210e-03 2.151242e-01 0.000000e+00  -2.368097e-02 3.903402e-01 0.000000e+00  -1.817802e-02 3.875078e-01 0.000000e+00  -2.084496e-02 3.825292e-01 0.000000e+00  5.481057e-02 4.921030e-01 0.000000e+00  -2.040440e-02 3.622082e-01 0.000000e+00  -1.419178e-03 3.401092e-01 0.000000e+00  2.461356e-03 2.082521e-01 0.000000e+00  2.716598e-03 2.014642e-01 0.000000e+00  8.426937e-04 1.761321e-01 0.000000e+00  2.329341e-03 1.433967e-01 0.000000e+00  2.205467e-02 3.213704e-01 0.000000e+00  1.461587e-02 3.026775e-01 0.000000e+00  -3.358828e-02 4.205294e-01 0.000000e+00  1.941054e-03 2.155485e-01 0.000000e+00  -2.429302e-02 3.694408e-01 0.000000e+00  5.216955e-03 2.336007e-01 0.000000e+00  8.008916e-02 4.730268e-01 0.000000e+00  -3.676165e-02 4.034940e-01 0.000000e+00  7.720131e-02 4.073296e-01 0.000000e+00  2.337281e-02 3.268066e-01 0.000000e+00  3.641116e-03 5.458341e-01 0.000000e+00  -1.789381e-02 5.062024e-01 0.000000e+00  1.841943e-02 3.312096e-01 0.000000e+00  -3.101816e-02 5.842139e-01 0.000000e+00  2.271937e-02 3.308282e-01 0.000000e+00  -2.459099e-02 6.030134e-01 0.000000e+00  -2.857007e-02 5.440203e-01 0.000000e+00  -4.104144e-02 6.263852e-01 0.000000e+00  -7.803663e-02 6.476144e-01 0.000000e+00  -4.319572e-02 6.108091e-01 0.000000e+00  -8.101626e-02 6.480128e-01 0.000000e+00  2.003780e-02 3.348915e-01 0.000000e+00  6.411495e-03 2.443168e-01 0.000000e+00  4.184533e-03 2.342073e-01 0.000000e+00  5.019158e-03 3.714557e-01 0.000000e+00  1.514565e-02 1.604357e-01 0.000000e+00  4.727907e-02 3.407037e-01 0.000000e+00  3.308795e-02 3.234957e-01 0.000000e+00  7.346796e-04 6.928255e-02 0.000000e+00  3.841237e-02 3.003033e-01 0.000000e+00  -1.544012e-02 3.627298e-01 0.000000e+00  -5.054806e-03 3.671499e-01 0.000000e+00  3.025017e-02 1.834805e-01 0.000000e+00  6.941577e-03 5.935689e-02 0.000000e+00  1.496433e-02 2.845462e-01 0.000000e+00  1.120797e-03 1.109664e-01 0.000000e+00  8.238984e-03 2.170720e-01 0.000000e+00  -6.146256e-04 4.153419e-02 0.000000e+00  3.062069e-02 3.241324e-01 0.000000e+00  7.859602e-03 3.431018e-01 0.000000e+00  2.991918e-04 3.171044e-02 0.000000e+00  -3.690541e-04 1.778121e-02 0.000000e+00  -1.891049e-02 3.719242e-01 0.000000e+00  3.394440e-02 3.259768e-01 0.000000e+00  1.172574e-02 9.394074e-02 0.000000e+00  3.157737e-02 1.755297e-01 0.000000e+00  5.088299e-03 3.443031e-02 0.000000e+00  2.558145e-02 1.507950e-01 0.000000e+00  5.107773e-02 2.617543e-01 0.000000e+00  1.189251e-02 2.676605e-01 0.000000e+00  -6.775515e-03 3.533459e-01 0.000000e+00  1.044448e-02 4.276164e-01 0.000000e+00  1.003882e-04 7.650523e-02 0.000000e+00  6.939266e-04 9.584304e-02 0.000000e+00  2.824488e-02 3.266999e-01 0.000000e+00  6.528793e-03 3.353673e-01 0.000000e+00  2.215881e-02 3.295266e-01 0.000000e+00  -1.591170e-02 3.610801e-01 0.000000e+00  5.525865e-03 2.030097e-01 0.000000e+00  2.382097e-02 3.111656e-01 0.000000e+00  8.259058e-03 2.383979e-01 0.000000e+00  4.133808e-02 4.577875e-01 0.000000e+00  2.304135e-02 3.246222e-01 0.000000e+00  4.759836e-03 8.853883e-02 0.000000e+00  1.206437e-03 1.314415e-01 0.000000e+00  1.563711e-04 9.385678e-02 0.000000e+00  -2.262083e-02 4.007289e-01 0.000000e+00  3.502493e-03 6.834686e-02 0.000000e+00  3.430663e-04 3.436410e-01 0.000000e+00  1.745479e-02 2.907738e-01 0.000000e+00  -2.070149e-02 3.701612e-01 0.000000e+00  -1.138712e-02 4.080405e-01 0.000000e+00  -2.410013e-02 3.798371e-01 0.000000e+00  7.339823e-02 3.755588e-01 0.000000e+00  -2.105203e-02 3.688735e-01 0.000000e+00  4.129838e-02 2.131638e-01 0.000000e+00  6.287333e-02 3.812384e-01 0.000000e+00  -1.432020e-02 3.920443e-01 0.000000e+00  2.364896e-03 1.763300e-01 0.000000e+00  1.645539e-03 1.537569e-01 0.000000e+00  7.047279e-02 4.579661e-01 0.000000e+00  1.037695e-02 2.560598e-01 0.000000e+00  1.736690e-02 2.958659e-01 0.000000e+00  -1.299826e-03 5.868785e-02 0.000000e+00  -1.379717e-02 3.560791e-01 0.000000e+00  2.268667e-02 1.608472e-01 0.000000e+00  7.271063e-03 1.210092e-01 0.000000e+00  2.093828e-02 3.140392e-01 0.000000e+00  -1.156279e-02 3.521059e-01 0.000000e+00  1.068011e-02 1.277081e-01 0.000000e+00  2.240688e-02 1.585644e-01 0.000000e+00  -2.189434e-02 3.657038e-01 0.000000e+00  -2.732737e-02 3.766728e-01 0.000000e+00  6.822291e-03 2.350094e-01 0.000000e+00  -2.826888e-02 3.927316e-01 0.000000e+00  -1.902484e-02 3.587977e-01 0.000000e+00  2.678703e-02 3.166649e-01 0.000000e+00  2.196913e-03 1.274380e-01 0.000000e+00  1.994020e-03 1.850881e-01 0.000000e+00  -2.612462e-02 3.855151e-01 0.000000e+00  2.472650e-02 3.226724e-01 0.000000e+00  1.322728e-03 1.731257e-01 0.000000e+00  -2.196454e-02 3.935937e-01 0.000000e+00  1.358395e-02 3.284804e-01 0.000000e+00  -8.443688e-03 3.458373e-01 0.000000e+00  3.744197e-04 1.938584e-01 0.000000e+00  1.677260e-03 1.460274e-01 0.000000e+00  -3.429661e-02 3.993179e-01 0.000000e+00  9.555381e-03 2.520177e-01 0.000000e+00  2.627649e-02 3.186047e-01 0.000000e+00  1.105001e-02 2.761808e-01 0.000000e+00  1.976692e-02 1.496566e-01 0.000000e+00  4.837807e-02 2.339953e-01 0.000000e+00  6.013390e-02 5.290525e-01 0.000000e+00  -2.829474e-02 4.182977e-01 0.000000e+00  1.404098e-03 1.