<?xml version="1.0"?>
<VTKFile type="UnstructuredGrid"  version="0.1"  >
<UnstructuredGrid>
<Piece  NumberOfPoints="2868" NumberOfCells="5400">
<Points>
<DataArray  type="Float32"  NumberOfComponents="3"  format="ascii">0.534923 0.326073 0  0.510642 0.314196 0  0.466125 0.293082 0  0.436448 0.281205 0  0.409468 0.275927 0  0.368998 0.270648 0  0.35281 0.275927 0  0.381139 0.302319 0  0.405421 0.326073 0  0.410817 0.33531 0  0.408119 0.349826 0  0.400025 0.357744 0  0.375743 0.368301 0  0.329878 0.392055 0  0.297502 0.432963 0  0.282663 0.476511 0  0.285361 0.524018 0  0.298851 0.572845 0  0.317737 0.604516 0  0.337972 0.636187 0  0.360904 0.674457 0  0.368998 0.69953 0  0.359555 0.721964 0  0.360904 0.757594 0  0.370347 0.766831 0  0.381139 0.762872 0  0.390582 0.741758 0  0.404072 0.720644 0  0.424307 0.707448 0  0.447239 0.702169 0  0.480964 0.704808 0  0.479615 0.688973 0  0.468823 0.675776 0  0.447239 0.669178 0  0.428354 0.669178 0  0.410817 0.6639 0  0.404072 0.653343 0  0.395978 0.628269 0  0.387884 0.59132 0  0.389233 0.576804 0  0.397327 0.557009 0  0.410817 0.547772 0  0.424307 0.546452 0  0.437797 0.55305 0  0.44589 0.566247 0  0.441843 0.582082 0  0.439145 0.597918 0  0.449937 0.609795 0  0.468823 0.603196 0  0.479615 0.59 0  0.489058 0.570205 0  0.494454 0.546452 0  0.505246 0.522699 0  0.522783 0.509502 0  0.55246 0.494986 0  0.586185 0.484429 0  0.615863 0.48047 0  0.64554 0.473872 0  0.667124 0.461995 0  0.683312 0.451438 0  0.696802 0.435603 0  0.703547 0.417128 0  0.71164 0.393374 0  0.718385 0.37226 0  0.72513 0.364342 0  0.739969 0.353785 0  0.745365 0.344548 0  0.745365 0.327393 0  0.737271 0.318155 0  0.718385 0.316835 0  0.700849 0.319475 0  0.677916 0.318155 0  0.650936 0.316835 0  0.610467 0.318155 0  0.57944 0.324753 0  0.559205 0.328712 0  0.53897 0.326073 0  1 1 0  1 0 0  0 0 0  0 1 0  0.532238 0.32476 0  0.528748 0.323052 0  0.52421 0.320833 0  0.518311 0.317947 0  0.503447 0.310783 0  0.494093 0.306347 0  0.481933 0.30058 0  0.452151 0.28749 0  0.392327 0.273691 0  0.379141 0.271971 0  0.360474 0.283066 0  0.369797 0.291752 0  0.391424 0.31238 0  0.399335 0.32012 0  0.40958 0.341964 0  0.393939 0.36039 0  0.386028 0.36383 0  0.364248 0.374254 0  0.349304 0.381994 0  0.315801 0.409841 0  0.292986 0.551616 0  0.350934 0.657818 0  0.360127 0.737055 0  0.360566 0.748664 0  0.385245 0.753692 0  0.396447 0.732578 0  0.466301 0.703661 0  0.459439 0.672908 0  0.418442 0.666195 0  0.400553 0.642441 0  0.39255 0.612619 0  0.389913 0.60058 0  0.392752 0.568197 0  0.444131 0.573132 0  0.458149 0.606926 0  0.500554 0.533026 0  0.571522 0.489019 0  0.632637 0.476741 0  0.689177 0.444553 0  0.708121 0.403702 0  0.715453 0.38144 0  0.732406 0.359166 0  0.745365 0.337089 0  0.72906 0.317581 0  0.629879 0.317522 0  0.59293 0.321884 0  0.568003 0.326991 0  0.55202 0.327775 0  0.546493 0.327054 0  0.542241 0.326499 0  1 0.9 0  1 0.8 0  1 0.7 0  1 0.6 0  1 0.5 0  1 0.4 0  1 0.3 0  1 0.2 0  1 0.1 0  0.9 0 0  0.8 0 0  0.7 0 0  0.6 0 0  0.5 0 0  0.4 0 0  0.3 0 0  0.2 0 0  0.1 0 0  0.1 1 0  0.2 1 0  0.3 1 0  0.4 1 0  0.5 1 0  0.6 1 0  0.7 1 0  0.8 1 0  0.9 1 0  0 0.1 0  0 0.2 0  0 0.3 0  0 0.4 0  0 0.5 0  0 0.6 0  0 0.7 0  0 0.8 0  0 0.9 0  0.535686 0.503191 0  0.753987 0.733359 0  0.167145 0.741436 0  0.173378 0.257204 0  0.733497 0.159862 0  0.554096 0.15788 0  0.849187 0.479053 0  0.488793 0.838452 0  0.138507 0.5592 0  0.30686 0.154944 0  0.348904 0.890523 0  0.058006 0.065099 0  0.069849 0.937917 0  0.93633 0.939704 0  0.934625 0.053613 0  0.343397 0.333452 0  0.473272 0.639943 0  0.433266 0.638072 0  0.415174 0.58269 0  0.533435 0.545042 0  0.390848 0.340652 0  0.53655 0.320242 0  0.127966 0.393775 0  0.83861 0.850455 0  0.635242 0.85513 0  0.852158 0.633441 0  0.653427 0.626848 0  0.861226 0.24292 0  0.166128 0.12976 0  0.216875 0.869871 0  0.458305 0.11179 0  0.84446 0.101633 0  0.202024 0.642528 0  0.644825 0.115855 0  0.671342 0.218358 0  0.251354 0.286186 0  0.262388 0.75153 0  0.063044 0.751571 0  0.068189 0.242962 0  0.435781 0.905395 0  0.934144 0.451133 0  0.568393 0.237622 0  0.814984 0.395506 0  0.752951 0.517227 0  0.456254 0.780699 0  0.073352 0.531116 0  0.337731 0.206071 0  0.363213 0.960371 0  0.330742 0.363592 0  0.516613 0.55705 0  0.369057 0.332992 0  0.500926 0.617309 0  0.498004 0.665534 0  0.412142 0.61178 0  0.454233 0.636604 0  0.422782 0.567496 0  0.541193 0.52148 0  0.439761 0.65557 0  0.5163 0.533672 0  0.414775 0.64562 0  0.40073 0.576135 0  0.430362 0.588034 0  0.385432 0.351492 0  0.400298 0.335397 0  0.398325 0.348194 0  0.528702 0.314885 0  0.540814 0.322334 0  0.534477 0.322953 0  0.619095 0.743583 0  0.885162 0.737972 0  0.08076 0.668849 0  0.90734 0.36634 0  0.094687 0.868937 0  0.759838 0.912152 0  0.901518 0.540898 0  0.747285 0.607479 0  0.229182 0.071641 0  0.069154 0.450091 0  0.244775 0.203309 0  0.076534 0.331755 0  0.897847 0.167826 0  0.578909 0.911415 0  0.077133 0.146341 0  0.477215 0.203448 0  0.922631 0.869341 0  0.517415 0.074785 0  0.297026 0.827793 0  0.783271 0.246505 0  0.74519 0.061079 0  0.36033 0.069068 0  0.210313 0.475228 0  0.859426 0.928758 0  0.574548 0.609182 0  0.243069 0.383398 0  0.283099 0.934598 0  0.417416 0.843141 0  0.643942 0.553164 0  0.112687 0.079336 0  0.281357 0.658386 0  0.765043 0.436177 0  0.611361 0.198486 0  0.234496 0.58911 0  0.206479 0.702638 0  0.679608 0.155818 0  0.62682 0.259978 0  0.690538 0.264164 0  0.448938 0.956308 0  0.808154 0.328403 0  0.379583 0.91913 0  0.308083 0.297769 0  0.312358 0.730249 0  0.563101 0.278576 0  0.435597 0.746198 0  0.385475 0.225229 0  0.572248 0.518034 0  0.357864 0.35422 0  0.497647 0.641694 0  0.458101 0.655768 0  0.360474 0.310727 0  0.467038 0.620139 0  0.47798 0.659909 0  0.41102 0.628072 0  0.48324 0.609015 0  0.427544 0.617941 0  0.388633 0.328253 0  0.405336 0.599404 0  0.408351 0.565178 0  0.42395 0.600985 0  0.431562 0.576523 0  0.424905 0.655198 0  0.398064 0.58782 0  0.427739 0.557934 0  0.519291 0.303443 0  0.53142 0.320293 0  0.5449 0.323642 0  0.537166 0.323513 0  0.153974 0.920841 0  0.918186 0.67343 0  0.759946 0.820588 0  0.537526 0.783091 0  0.816532 0.545843 0  0.813991 0.178083 0  0.836774 0.702023 0  0.149815 0.318856 0  0.662287 0.923338 0  0.680146 0.791192 0  0.708961 0.663172 0  0.937278 0.287318 0  0.574622 0.688166 0  0.589474 0.076262 0  0.502822 0.926683 0  0.222269 0.811068 0  0.380457 0.164786 0  0.15321 0.684154 0  0.458063 0.051413 0  0.161702 0.056026 0  0.199351 0.198818 0  0.298946 0.095532 0  0.902465 0.795949 0  0.121139 0.791477 0  0.906269 0.112287 0  0.056109 0.822332 0  0.512172 0.13237 0  0.940964 0.741805 0  0.888887 0.408777 0  0.354543 0.825964 0  0.808736 0.068638 0  0.068507 0.394071 0  0.719105 0.563843 0  0.247287 0.149664 0  0.293062 0.237128 0  0.240524 0.434997 0  0.141255 0.623289 0  0.945202 0.160621 0  0.502914 0.247629 0  0.144669 0.480811 0  0.665025 0.060817 0  0.728047 0.224344 0  0.861995 0.313312 0  0.200068 0.534235 0  0.253262 0.965623 0  0.893804 0.49307 0  0.604391 0.572456 0  0.947088 0.345347 0  0.439372 0.227307 0  0.629847 0.159823 0  0.273405 0.880181 0  0.302744 0.776823 0  0.781502 0.295365 0  0.275342 0.349602 0  0.728385 0.472798 0  0.229136 0.246478 0  0.807794 0.480346 0  0.709476 0.112786 0  0.275506 0.694991 0  0.771674 0.394419 0  0.449715 0.861802 0  0.419159 0.799696 0  0.674851 0.503139 0  0.280443 0.61016 0  0.572443 0.192538 0  0.393113 0.87525 0  0.405555 0.948428 0  0.330942 0.934103 0  0.540509 0.597101 0  0.312763 0.668931 0  0.254368 0.540179 0  0.595265 0.25915 0  0.606679 0.234099 0  0.657131 0.279138 0  0.722458 0.279478 0  0.333 0.308056 0  0.351529 0.246142 0  0.455714 0.725794 0  0.585239 0.295143 0  0.340062 0.72492 0  0.545593 0.293773 0  0.555449 0.545426 0  0.414311 0.737314 0  0.590854 0.502323 0  0.350507 0.368444 0  0.484423 0.625665 0  0.483899 0.674542 0  0.378137 0.317274 0  0.446416 0.646404 0  0.373532 0.347654 0  0.446876 0.619769 0  0.466106 0.666068 0  0.437545 0.609254 0  0.434988 0.565726 0  0.41462 0.656829 0  0.418803 0.556961 0  0.398425 0.327446 0  0.517803 0.310421 0  0.549516 0.322918 0  0.57701 0.842889 0  0.829127 0.773906 0  0.643235 0.684732 0  0.134281 0.207734 0  0.865997 0.055966 0  0.680959 0.723345 0  0.165229 0.841555 0  0.54558 0.959672 0  0.783726 0.656439 0  0.913315 0.595533 0  0.699439 0.860667 0  0.785839 0.125076 0  0.551673 0.037713 0  0.920097 0.223214 0  0.206406 0.299726 0  0.087064 0.596401 0  0.935644 0.394252 0  0.964557 0.252582 0  0.230124 0.928346 0  0.120579 0.271764 0  0.857215 0.524082 0  0.767098 0.555147 0  0.936094 0.507131 0  0.804064 0.59585 0  0.700565 0.608273 0  0.429773 0.174231 0  0.117746 0.727333 0  0.538962 0.730231 0  0.862761 0.359173 0  0.821444 0.284046 0  0.193552 0.35818 0  0.234923 0.505555 0  0.193209 0.421217 0  0.220144 0.755896 0  0.594015 0.131642 0  0.283813 0.195855 0  0.517519 0.213961 0  0.553509 0.639116 0  0.280391 0.378018 0  0.852183 0.436817 0  0.746983 0.197173 0  0.821806 0.221318 0  0.449853 0.828453 0  0.883758 0.453926 0  0.183484 0.589542 0  0.348384 0.129314 0  0.255254 0.838525 0  0.504849 0.798516 0  0.320344 0.863432 0  0.611669 0.525425 0  0.265864 0.804962 0  0.72056 0.521442 0  0.613372 0.610122 0  0.481262 0.881068 0  0.655778 0.191988 0  0.701921 0.196918 0  0.565826 0.573181 0  0.46914 0.240927 0  0.343219 0.173284 0  0.888786 0.278502 0  0.244113 0.675093 0  0.739546 0.417914 0  0.784023 0.355942 0  0.326805 0.265549 0  0.248616 0.634948 0  0.789183 0.413964 0  0.764107 0.476606 0  0.32086 0.698956 0  0.334735 0.791464 0  0.53448 0.258468 0  0.395208 0.824575 0  0.309962 0.638947 0  0.263264 0.22712 0  0.756395 0.267254 0  0.639281 0.224663 0  0.358631 0.85116 0  0.309751 0.332089 0  0.663461 0.246436 0  0.424083 0.871774 0  0.269645 0.445719 0  0.272183 0.572741 0  0.624492 0.294638 0  0.717827 0.250266 0  0.408215 0.763744 0  0.485997 0.274924 0  0.288138 0.274311 0  0.410524 0.242487 0  0.741513 0.385737 0  0.691284 0.483519 0  0.515531 0.581849 0  0.463005 0.753402 0  0.681919 0.
[...]
<PointData  Vectors="u"> 
<DataArray  type="Float32"  Name="u"  NumberOfComponents="3" format="ascii">2.379535e-03 1.156406e-01 0.000000e+00  3.062507e-03 1.189944e-01 0.000000e+00  4.488938e-03 1.246000e-01 0.000000e+00  4.925655e-03 1.289132e-01 0.000000e+00  5.107636e-03 1.335678e-01 0.000000e+00  5.061837e-03 1.428791e-01 0.000000e+00  6.283450e-03 1.508427e-01 0.000000e+00  7.380392e-03 1.600679e-01 0.000000e+00  9.540171e-03 1.619762e-01 0.000000e+00  1.015677e-02 1.619812e-01 0.000000e+00  1.094846e-02 1.619740e-01 0.000000e+00  1.124360e-02 1.617678e-01 0.000000e+00  1.147335e-02 1.598323e-01 0.000000e+00  1.022133e-02 1.564801e-01 0.000000e+00  6.761898e-03 1.571974e-01 0.000000e+00  2.702053e-03 1.599613e-01 0.000000e+00  -1.825576e-03 1.638228e-01 0.000000e+00  -6.171434e-03 1.683714e-01 0.000000e+00  -8.797616e-03 1.718495e-01 0.000000e+00  -1.063191e-02 1.747909e-01 0.000000e+00  -1.188712e-02 1.772171e-01 0.000000e+00  -1.229814e-02 1.779236e-01 0.000000e+00  -1.265937e-02 1.786459e-01 0.000000e+00  -1.459354e-02 1.817426e-01 0.000000e+00  -1.633440e-02 1.849064e-01 0.000000e+00  -1.783737e-02 1.882567e-01 0.000000e+00  -1.908007e-02 1.919291e-01 0.000000e+00  -1.870421e-02 1.946636e-01 0.000000e+00  -1.782246e-02 1.978243e-01 0.000000e+00  -1.698264e-02 2.021543e-01 0.000000e+00  -1.545023e-02 2.194222e-01 0.000000e+00  -1.567053e-02 2.389213e-01 0.000000e+00  -1.559024e-02 2.580894e-01 0.000000e+00  -1.700825e-02 2.784415e-01 0.000000e+00  -1.878701e-02 2.893118e-01 0.000000e+00  -2.102955e-02 2.955360e-01 0.000000e+00  -2.310633e-02 2.981983e-01 0.000000e+00  -2.894527e-02 3.046192e-01 0.000000e+00  -3.748731e-02 3.113533e-01 0.000000e+00  -3.907327e-02 3.122312e-01 0.000000e+00  -3.991160e-02 3.130549e-01 0.000000e+00  -3.979440e-02 3.136486e-01 0.000000e+00  -3.959841e-02 3.140508e-01 0.000000e+00  -3.905760e-02 3.140192e-01 0.000000e+00  -3.745917e-02 3.134434e-01 0.000000e+00  -3.367617e-02 3.125114e-01 0.000000e+00  -2.564955e-02 3.084996e-01 0.000000e+00  -1.050437e-02 2.967114e-01 0.000000e+00  8.433317e-03 2.832517e-01 0.000000e+00  2.350672e-02 2.753871e-01 0.000000e+00  3.755539e-02 2.674861e-01 0.000000e+00  4.603080e-02 2.603964e-01 0.000000e+00  4.746592e-02 2.536972e-01 0.000000e+00  4.575046e-02 2.451838e-01 0.000000e+00  4.177755e-02 2.252045e-01 0.000000e+00  3.753126e-02 1.990394e-01 0.000000e+00  3.518605e-02 1.740209e-01 0.000000e+00  3.225036e-02 1.464547e-01 0.000000e+00  2.863987e-02 1.259005e-01 0.000000e+00  2.567773e-02 1.109183e-01 0.000000e+00  2.215874e-02 9.684167e-02 0.000000e+00  1.906950e-02 8.767094e-02 0.000000e+00  1.526095e-02 7.973225e-02 0.000000e+00  1.225081e-02 7.502817e-02 0.000000e+00  1.097100e-02 7.304502e-02 0.000000e+00  8.586231e-03 6.793674e-02 0.000000e+00  6.802836e-03 6.480690e-02 0.000000e+00  4.016633e-03 6.297684e-02 0.000000e+00  2.362538e-03 6.468993e-02 0.000000e+00  1.398338e-03 6.952562e-02 0.000000e+00  1.164042e-03 7.373299e-02 0.000000e+00  7.040333e-04 7.917461e-02 0.000000e+00  2.196249e-04 8.624198e-02 0.000000e+00  9.203214e-05 9.771062e-02 0.000000e+00  9.811486e-04 1.065552e-01 0.000000e+00  1.771240e-03 1.113084e-01 0.000000e+00  2.276971e-03 1.150521e-01 0.000000e+00  0.000000e+00 0.000000e+00 0.000000e+00  0.000000e+00 0.000000e+00 0.000000e+00  1.510333e-02 1.551409e-01 0.000000e+00  -6.673847e-03 1.745420e-01 0.000000e+00  2.404505e-03 1.159838e-01 0.000000e+00  2.474372e-03 1.164781e-01 0.000000e+00  2.596551e-03 1.171262e-01 0.000000e+00  2.786141e-03 1.179534e-01 0.000000e+00  3.331092e-03 1.199321e-01 0.000000e+00  3.670471e-03 1.211044e-01 0.000000e+00  4.068783e-03 1.225934e-01 0.000000e+00  4.744148e-03 1.265007e-01 0.000000e+00  5.136878e-03 1.369137e-01 0.000000e+00  5.103444e-03 1.398907e-01 0.000000e+00  6.036797e-03 1.557019e-01 0.000000e+00  6.555920e-03 1.581378e-01 0.000000e+00  8.285214e-03 1.612435e-01 0.000000e+00  9.025379e-03 1.617961e-01 0.000000e+00  1.053618e-02 1.619815e-01 0.000000e+00  1.133136e-02 1.614367e-01 0.000000e+00  1.142545e-02 1.608072e-01 0.000000e+00  1.139920e-02 1.587233e-01 0.000000e+00  1.108227e-02 1.574827e-01 0.000000e+00  8.852225e-03 1.563933e-01 0.000000e+00  -4.379549e-03 1.663489e-01 0.000000e+00  -1.143765e-02 1.763355e-01 0.000000e+00  -1.331181e-02 1.796269e-01 0.000000e+00  -1.394068e-02 1.805488e-01 0.000000e+00  -1.877509e-02 1.902553e-01 0.000000e+00  -1.902791e-02 1.931942e-01 0.000000e+00  -1.650876e-02 2.077403e-01 0.000000e+00  -1.581115e-02 2.682986e-01 0.000000e+00  -2.008677e-02 2.932987e-01 0.000000e+00  -2.540391e-02 3.008362e-01 0.000000e+00  -3.298313e-02 3.081832e-01 0.000000e+00  -3.584089e-02 3.103144e-01 0.000000e+00  -3.961183e-02 3.126271e-01 0.000000e+00  -3.627212e-02 3.132491e-01 0.000000e+00  -1.592767e-03 2.910485e-01 0.000000e+00  4.752978e-02 2.564867e-01 0.000000e+00  3.935199e-02 2.106760e-01 0.000000e+00  3.356607e-02 1.587406e-01 0.000000e+00  2.424074e-02 1.045661e-01 0.000000e+00  1.688479e-02 8.285934e-02 0.000000e+00  1.348867e-02 7.674490e-02 0.000000e+00  9.885507e-03 7.084990e-02 0.000000e+00  5.623884e-03 6.354346e-02 0.000000e+00  1.825802e-03 6.680119e-02 0.000000e+00  7.293293e-05 9.207281e-02 0.000000e+00  5.129908e-04 1.028796e-01 0.000000e+00  1.433621e-03 1.094201e-01 0.000000e+00  1.919282e-03 1.126577e-01 0.000000e+00  2.061612e-03 1.137103e-01 0.000000e+00  2.180045e-03 1.144827e-01 0.000000e+00  0.000000e+00 0.000000e+00 0.000000e+00  0.000000e+00 0.000000e+00 0.000000e+00  0.000000e+00 0.000000e+00 0.000000e+00  0.000000e+00 0.000000e+00 0.000000e+00  0.000000e+00 0.000000e+00 0.000000e+00  0.000000e+00 0.000000e+00 0.000000e+00  0.000000e+00 0.000000e+00 0.000000e+00  0.000000e+00 0.000000e+00 0.000000e+00  0.000000e+00 0.000000e+00 0.000000e+00  2.789496e-04 2.479605e-02 0.000000e+00  8.284127e-04 4.928618e-02 0.000000e+00  1.755151e-03 7.276451e-02 0.000000e+00  3.164843e-03 9.448037e-02 0.000000e+00  5.045778e-03 1.136493e-01 0.000000e+00  7.340076e-03 1.296989e-01 0.000000e+00  1.001582e-02 1.418787e-01 0.000000e+00  1.254969e-02 1.496429e-01 0.000000e+00  1.433210e-02 1.536963e-01 0.000000e+00  -7.395291e-03 1.760734e-01 0.000000e+00  -8.599997e-03 1.793905e-01 0.000000e+00  -9.382100e-03 1.835355e-01 0.000000e+00  -8.344519e-03 1.860091e-01 0.000000e+00  -4.702130e-03 1.814729e-01 0.000000e+00  -1.083089e-04 1.648300e-01 0.000000e+00  2.717043e-03 1.357161e-01 0.000000e+00  2.854605e-03 9.741896e-02 0.000000e+00  1.364334e-03 5.256559e-02 0.000000e+00  1.628430e-02 1.558075e-01 0.000000e+00  1.782192e-02 1.570213e-01 0.000000e+00  1.802160e-02 1.585101e-01 0.000000e+00  1.592210e-02 1.603759e-01 0.000000e+00  1.169460e-02 1.628472e-01 0.000000e+00  6.465532e-03 1.658796e-01 0.000000e+00  1.489798e-03 1.690340e-01 0.000000e+00  -2.520665e-03 1.717663e-01 0.000000e+00  -5.327163e-03 1.736940e-01 0.000000e+00  4.419662e-02 2.372477e-01 0.000000e+00  1.422110e-02 1.097842e-01 0.000000e+00  -5.461667e-03 1.722680e-01 0.000000e+00  1.551566e-02 1.564268e-01 0.000000e+00  7.625953e-04 6.649373e-02 0.000000e+00  3.306671e-03 1.067530e-01 0.000000e+00  4.196945e-03 4.580841e-02 0.000000e+00  -7.126988e-03 1.929559e-01 0.000000e+00  3.920509e-03 1.644083e-01 0.000000e+00  1.003565e-02 1.462822e-01 0.000000e+00  -1.129782e-02 1.858494e-01 0.000000e+00  1.520241e-02 1.551983e-01 0.000000e+00  -6.807825e-03 1.747440e-01 0.000000e+00  6.940271e-04 3.361026e-02 0.000000e+00  1.129995e-04 1.636417e-02 0.000000e+00  1.075753e-02 1.570542e-01 0.000000e+00  -6.162603e-03 2.659473e-01 0.000000e+00  -1.792543e-02 2.924654e-01 0.000000e+00  -3.642322e-02 3.121797e-01 0.000000e+00  4.055457e-02 2.439308e-01 0.000000e+00  1.047786e-02 1.611867e-01 0.000000e+00  2.430262e-03 1.152816e-01 0.000000e+00  1.347562e-02 1.594195e-01 0.000000e+00  4.510349e-03 7.722934e-02 0.000000e+00  5.854057e-03 1.615104e-01 0.000000e+00  8.036021e-03 5.589379e-02 0.000000e+00  2.799209e-02 1.574026e-01 0.000000e+00  -2.809995e-04 3.543635e-02 0.000000e+00  1.433750e-02 1.539942e-01 0.000000e+00  -9.038440e-03 1.779526e-01 0.000000e+00  5.563114e-03 1.232289e-01 0.000000e+00  3.127928e-04 3.901680e-02 0.000000e+00  -3.471012e-03 1.690380e-01 0.000000e+00  1.954843e-03 8.668244e-02 0.000000e+00  8.301916e-04 8.162667e-02 0.000000e+00  1.387679e-02 1.552710e-01 0.000000e+00  -9.230343e-03 1.760616e-01 0.000000e+00  -2.475865e-03 1.707968e-01 0.000000e+00  1.715299e-02 1.574589e-01 0.000000e+00  -8.974257e-03 1.890451e-01 0.000000e+00  5.830844e-05 1.612566e-02 0.000000e+00  2.283084e-03 1.059622e-01 0.000000e+00  2.768899e-03 5.253879e-02 0.000000e+00  1.498802e-02 8.652763e-02 0.000000e+00  -1.277161e-02 1.983275e-01 0.000000e+00  7.878442e-03 1.635625e-01 0.000000e+00  8.434391e-03 1.453514e-01 0.000000e+00  -9.397827e-03 1.860960e-01 0.000000e+00  1.112037e-02 1.568799e-01 0.000000e+00  3.908330e-02 2.545635e-01 0.000000e+00  1.012309e-02 1.592089e-01 0.000000e+00  1.024821e-02 2.575448e-01 0.000000e+00  -1.049564e-03 2.410641e-01 0.000000e+00  -2.886463e-02 3.069044e-01 0.000000e+00  -1.149218e-02 2.800786e-01 0.000000e+00  -3.843406e-02 3.133297e-01 0.000000e+00  4.270901e-02 2.363175e-01 0.000000e+00  -1.728553e-02 2.851431e-01 0.000000e+00  4.475878e-02 2.515606e-01 0.000000e+00  -2.197144e-02 2.975413e-01 0.000000e+00  -3.858576e-02 3.125144e-01 0.000000e+00  -3.305156e-02 3.114345e-01 0.000000e+00  1.105004e-02 1.607663e-01 0.000000e+00  1.013729e-02 1.617482e-01 0.000000e+00  1.089123e-02 1.616632e-01 0.000000e+00  2.733825e-03 1.163713e-01 0.000000e+00  2.272713e-03 1.146238e-01 0.000000e+00  2.429659e-03 1.156600e-01 0.000000e+00  1.504898e-02 1.745138e-01 0.000000e+00  4.406822e-03 4.997912e-02 0.000000e+00  3.380970e-04 1.683137e-01 0.000000e+00  -6.130969e-04 2.397006e-02 0.000000e+00  -6.316660e-03 1.740990e-01 0.000000e+00  4.624481e-03 1.132903e-01 0.000000e+00  3.847918e-03 3.004553e-02 0.000000e+00  1.909860e-02 1.010471e-01 0.000000e+00  1.215477e-02 1.496187e-01 0.000000e+00  1.229665e-02 1.612671e-01 0.000000e+00  1.320442e-02 1.529021e-01 0.000000e+00  1.629596e-02 1.587804e-01 0.000000e+00  -8.142007e-05 2.580323e-02 0.000000e+00  5.030230e-05 1.739110e-01 0.000000e+00  1.608901e-02 1.560143e-01 0.000000e+00  4.854090e-03 1.217390e-01 0.000000e+00  1.210434e-03 3.876680e-02 0.000000e+00  4.508552e-03 1.120312e-01 0.000000e+00  -1.149145e-02 1.809148e-01 0.000000e+00  5.812414e-04 5.509340e-02 0.000000e+00  1.145600e-03 6.289135e-02 0.000000e+00  8.256090e-03 1.369429e-01 0.000000e+00  6.548441e-03 1.607221e-01 0.000000e+00  2.415219e-03 7.016750e-02 0.000000e+00  2.840265e-02 2.125517e-01 0.000000e+00  1.151204e-02 1.574710e-01 0.000000e+00  -9.843200e-03 1.824369e-01 0.000000e+00  -1.217430e-02 1.911458e-01 0.000000e+00  3.195314e-02 1.582125e-01 0.000000e+00  1.466692e-02 1.545062e-01 0.000000e+00  -8.163213e-03 1.729002e-01 0.000000e+00  8.411205e-03 7.176091e-02 0.000000e+00  1.694566e-03 9.549505e-02 0.000000e+00  -2.641796e-03 1.669541e-01 0.000000e+00  -5.833967e-03 1.719265e-01 0.000000e+00  1.218610e-03 7.921173e-02 0.000000e+00  6.420784e-04 9.273794e-02 0.000000e+00  7.412236e-04 7.692271e-02 0.000000e+00  -7.222466e-03 1.867173e-01 0.000000e+00  1.396807e-03 5.100514e-02 0.000000e+00  -1.017574e-02 1.872625e-01 0.000000e+00  1.195887e-02 1.544007e-01 0.000000e+00  -1.075923e-02 1.775923e-01 0.000000e+00  1.988065e-03 1.085569e-01 0.000000e+00  -1.644887e-02 1.979984e-01 0.000000e+00  5.823573e-03 1.379771e-01 0.000000e+00  3.920205e-02 2.135020e-01 0.000000e+00  1.109027e-02 1.583975e-01 0.000000e+00  2.419762e-03 2.507203e-01 0.000000e+00  -1.394658e-02 2.722403e-01 0.000000e+00  8.796150e-03 1.575956e-01 0.000000e+00  -2.773324e-03 2.771120e-01 0.000000e+00  -8.672406e-03 2.555082e-01 0.000000e+00  -2.535874e-02 3.026092e-01 0.000000e+00  8.488155e-03 2.704798e-01 0.000000e+00  -2.202102e-02 3.021064e-01 0.000000e+00  9.625656e-03 1.609983e-01 0.000000e+00  -3.372896e-02 3.099912e-01 0.000000e+00  -3.929753e-02 3.131812e-01 0.000000e+00  -2.921034e-02 3.088996e-01 0.000000e+00  -3.630487e-02 3.127762e-01 0.000000e+00  -1.956939e-02 2.925134e-01 0.000000e+00  -3.712233e-02 3.116121e-01 0.000000e+00  -3.910589e-02 3.138042e-01 0.000000e+00  3.264090e-03 1.175255e-01 0.000000e+00  2.538095e-03 1.160625e-01 0.000000e+00  2.141870e-03 1.139192e-01 0.000000e+00  2.357733e-03 1.152732e-01 0.000000e+00  -7.914633e-03 1.765903e-01 0.000000e+00  2.830831e-03 3.175532e-02 0.000000e+00  8.778029e-03 1.113640e-01 0.000000e+00  3.945938e-04 1.961086e-01 0.000000e+00  9.574057e-03 6.269889e-02 0.000000e+00  1.916324e-04 4.698406e-02 0.000000e+00  8.714767e-03 6.870326e-02 0.000000e+00  1.536470e-02 1.578075e-01 0.000000e+00  3.429939e-03 1.499778e-01 0.000000e+00  1.225698e-02 1.460578e-01 0.000000e+00  2.174416e-02 1.272722e-01 0.000000e+00  -6.583327e-04 1.524249e-02 0.000000e+00  1.721737e-02 2.011060e-01 0.000000e+00  3.117349e-03 9.795152e-02 0.000000e+00  -4.920359e-03 1.849269e-01 0.000000e+00  -8.776096e-03 1.764807e-01 0.000000e+00  6.979534e-03 1.370647e-01 0.000000e+00  -3.002617e-03 1.697902e-01 0.000000e+00  5.856255e-03 1.219485e-01 0.000000e+00  1.358615e-02 1.526386e-01 0.000000e+00  1.449920e-02 1.545440e-01 0.000000e+00  1.016774e-02 1.447978e-01 0.000000e+00  2.641169e-03 4.549038e-02 0.000000e+00  -5.348493e-03 1.727760e-01 0.000000e+00  7.565428e-05 2.360654e-02 0.000000e+00  -4.499690e-03 1.725564e-01 0.000000e+00  4.351458e-03 1.141828e-01 0.000000e+00  1.319275e-03 2.576508e-02 0.000000e+00  4.141281e-04 3.012130e-02 0.000000e+00  -1.351564e-02 1.855719e-01 0.000000e+00  6.301697e-04 4.763605e-02 0.000000e+00  1.468442e-02 1.599934e-01 0.000000e+00  2.206462e-02 1.102376e-01 0.000000e+00  1.237065e-02 1.508505e-01 0.000000e+00  1.166142e-02 1.517907e-01 0.000000e+00  8.377809e-03 1.588663e-01 0.000000e+00  2.324678e-04 1.670966e-01 0.000000e+00  -4.430565e-05 1.382193e-02 0.000000e+00  4.330817e-03 1.184540e-01 0.000000e+00  8.513233e-03 1.614971e-01 0.000000e+00  2.029040e-03 8.141090e-02 0.000000e+00  7.110369e-04 6.811079e-02 0.000000e+00  -3.430269e-04 3.614203e-02 0.000000e+00  2.780101e-03 1.634138e-01 0.000000e+00  -9.256075e-03 1.812927e-01 0.000000e+00  2.880914e-03 3.103580e-02 0.000000e+00  3.398890e-02 1.908454e-01 0.000000e+00  -1.121801e-03 1.218384e-02 0.000000e+00  5.265480e-03 1.282511e-01 0.000000e+00  1.796414e-03 9.068483e-02 0.000000e+00  -1.037697e-02 1.810266e-01 0.000000e+00  -1.136324e-02 1.790770e-01 0.000000e+00  1.469223e-03 5.623981e-02 0.000000e+00  1.230067e-02 1.563115e-01 0.000000e+00  1.565412e-02 9.113959e-02 0.000000e+00  1.426457e-02 1.548540e-01 0.000000e+00  6.913774e-03 6.055990e-02 0.000000e+00  1.215713e-03 7.180373e-02 0.000000e+00  -8.645161e-03 1.743781e-01 0.000000e+00  6.112862e-03 6.522620e-02 0.000000e+00  -9.697194e-03 1.914458e-01 0.000000e+00  -1.423199e-02 1.931372e-01 0.000000e+00  2.707485e-02 1.280128e-01 0.000000e+00  -6.603377e-03 1.700341e-01 0.000000e+00  2.613778e-03 1.038490e-01 0.000000e+00  -1.150063e-02 1.886982e-01 0.000000e+00  -8.832445e-03 1.873299e-01 0.000000e+00  -1.012397e-02 1.848979e-01 0.000000e+00  2.646724e-02 2.380582e-01 0.000000e+00  -9.923707e-03 1.750290e-01 0.000000e+00  -7.516148e-04 1.643190e-01 0.000000e+00  1.200501e-03 1.005217e-01 0.000000e+00  1.322972e-03 9.725221e-02 0.000000e+00  4.295997e-04 8.503186e-02 0.000000e+00  1.151057e-03 6.925252e-02 0.000000e+00  1.056759e-02 1.551728e-01 0.000000e+00  7.006251e-03 1.461425e-01 0.000000e+00  -1.630931e-02 2.033424e-01 0.000000e+00  9.505917e-04 1.040337e-01 0.000000e+00  -1.180905e-02 1.785417e-01 0.000000e+00  2.522009e-03 1.127395e-01 0.000000e+00  3.873009e-02 2.288413e-01 0.000000e+00  -1.784299e-02 1.950818e-01 0.000000e+00  3.735906e-02 1.970549e-01 0.000000e+00  1.118567e-02 1.577995e-01 0.000000e+00  1.663035e-03 2.640838e-01 0.000000e+00  -8.746792e-03 2.448632e-01 0.000000e+00  8.803442e-03 1.599072e-01 0.000000e+00  -1.514008e-02 2.827050e-01 0.000000e+00  1.087073e-02 1.597272e-01 0.000000e+00  -1.203628e-02 2.918314e-01 0.000000e+00  -1.393531e-02 2.632003e-01 0.000000e+00  -2.002688e-02 3.031797e-01 0.000000e+00  -3.800811e-02 3.134964e-01 0.000000e+00  -2.105372e-02 2.956128e-01 0.000000e+00  -3.945887e-02 3.136920e-01 0.000000e+00  9.580051e-03 1.616800e-01 0.000000e+00  3.093084e-03 1.179066e-01 0.000000e+00  2.027090e-03 1.130257e-01 0.000000e+00  2.401268e-03 1.796223e-01 0.000000e+00  7.321659e-03 7.758392e-02 0.000000e+00  2.285015e-02 1.647756e-01 0.000000e+00  1.593300e-02 1.562423e-01 0.000000e+00  3.565191e-04 3.346653e-02 0.000000e+00  1.856597e-02 1.452302e-01 0.000000e+00  -7.502517e-03 1.752818e-01 0.000000e+00  -2.473938e-03 1.775205e-01 0.000000e+00  1.462971e-02 8.873277e-02 0.000000e+00  3.358003e-03 2.870269e-02 0.000000e+00  7.224048e-03 1.375975e-01 0.000000e+00  5.470655e-04 5.359532e-02 0.000000e+00  3.967522e-03 1.048118e-01 0.000000e+00  -2.959161e-04 2.006853e-02 0.000000e+00  1.472654e-02 1.565477e-01 0.000000e+00  3.762780e-03 1.657678e-01 0.000000e+00  1.451509e-04 1.532632e-02 0.000000e+00  -1.782092e-04 8.592262e-03 0.000000e+00  -9.184514e-03 1.797432e-01 0.000000e+00  1.634492e-02 1.574479e-01 0.000000e+00  5.675771e-03 4.542296e-02 0.000000e+00  1.528134e-02 8.488763e-02 0.000000e+00  2.461155e-03 1.664628e-02 0.000000e+00  1.237611e-02 7.292420e-02 0.000000e+00  2.470414e-02 1.265979e-01 0.000000e+00  5.711706e-03 1.292265e-01 0.000000e+00  -3.309544e-03 1.707328e-01 0.000000e+00  5.014751e-03 2.068033e-01 0.000000e+00  5.349812e-05 3.697508e-02 0.000000e+00  3.439035e-04 4.630957e-02 0.000000e+00  1.357813e-02 1.578011e-01 0.000000e+00  3.088440e-03 1.620190e-01 0.000000e+00  1.064048e-02 1.591803e-01 0.000000e+00  -7.735444e-03 1.744835e-01 0.000000e+00  2.666763e-03 9.801264e-02 0.000000e+00  1.145488e-02 1.502614e-01 0.000000e+00  3.976046e-03 1.150777e-01 0.000000e+00  1.994860e-02 2.214298e-01 0.000000e+00  1.104243e-02 1.567817e-01 0.000000e+00  2.308980e-03 4.280164e-02 0.000000e+00  5.959343e-04 6.348120e-02 0.000000e+00  8.308583e-05 4.534210e-02 0.000000e+00  -1.098840e-02 1.937506e-01 0.000000e+00  1.697790e-03 3.304085e-02 0.000000e+00  1.181580e-04 1.660309e-01 0.000000e+00  8.391941e-03 1.404066e-01 0.000000e+00  -1.005408e-02 1.788893e-01 0.000000e+00  -5.548261e-03 1.973114e-01 0.000000e+00  -1.170271e-02 1.835893e-01 0.000000e+00  3.551495e-02 1.816742e-01 0.000000e+00  -1.022541e-02 1.782652e-01 0.000000e+00  1.999118e-02 1.030936e-01 0.000000e+00  3.039350e-02 1.844017e-01 0.000000e+00  -6.964827e-03 1.895540e-01 0.000000e+00  1.154089e-03 8.513461e-02 0.000000e+00  8.093823e-04 7.424654e-02 0.000000e+00  3.406638e-02 2.215426e-01 0.000000e+00  4.985988e-03 1.236031e-01 0.000000e+00  8.344916e-03 1.428630e-01 0.000000e+00  -6.259218e-04 2.835874e-02 0.000000e+00  -6.718581e-03 1.720589e-01 0.000000e+00  1.100003e-02 7.777097e-02 0.000000e+00  3.533882e-03 5.848383e-02 0.000000e+00  1.004893e-02 1.516331e-01 0.000000e+00  -5.641557e-03 1.701332e-01 0.000000e+00  5.182385e-03 6.173835e-02 0.000000e+00  1.085481e-02 7.667454e-02 0.000000e+00  -1.064504e-02 1.767258e-01 0.000000e+00  -1.327134e-02 1.820553e-01 0.000000e+00  3.290154e-03 1.134291e-01 0.000000e+00  -1.372637e-02 1.898579e-01 0.000000e+00  -9.257377e-03 1.733753e-01 0.000000e+00  1.288165e-02 1.529212e-01 0.000000e+00  1.081072e-03 6.155797e-02 0.000000e+00  9.776396e-04 8.935575e-02 0.000000e+00  -1.268549e-02 1.863497e-01 0.000000e+00  1.185460e-02 1.558161e-01 0.000000e+00  6.585830e-04 8.358537e-02 0.000000e+00  -1.066903e-02 1.902845e-01 0.000000e+00  6.479376e-03 1.586702e-01 0.000000e+00  -4.144788e-03 1.670957e-01 0.000000e+00  2.008331e-04 9.357643e-02 0.000000e+00  8.317707e-04 7.051985e-02 0.000000e+00  -1.664835e-02 1.930568e-01 0.000000e+00  4.596187e-03 1.216385e-01 0.000000e+00  1.262337e-02 1.538518e-01 0.000000e+00  5.296552e-03 1.333322e-01 0.000000e+00  9.590596e-03 7.235068e-02 0.000000e+00  2.342533e-02 1.131723e-01 0.000000e+00  2.904061e-02 2.559571e-01 0.000000e+00  -1.374187e-02 2.022655e-01 0.000000e+00  7.033333e-04 7.