<?xml version="1.0"?>
<VTKFile type="UnstructuredGrid"  version="0.1"  >
<UnstructuredGrid>
<Piece  NumberOfPoints="2868" NumberOfCells="5400">
<Points>
<DataArray  type="Float32"  NumberOfComponents="3"  format="ascii">0.534923 0.326073 0  0.510642 0.314196 0  0.466125 0.293082 0  0.436448 0.281205 0  0.409468 0.275927 0  0.368998 0.270648 0  0.35281 0.275927 0  0.381139 0.302319 0  0.405421 0.326073 0  0.410817 0.33531 0  0.408119 0.349826 0  0.400025 0.357744 0  0.375743 0.368301 0  0.329878 0.392055 0  0.297502 0.432963 0  0.282663 0.476511 0  0.285361 0.524018 0  0.298851 0.572845 0  0.317737 0.604516 0  0.337972 0.636187 0  0.360904 0.674457 0  0.368998 0.69953 0  0.359555 0.721964 0  0.360904 0.757594 0  0.370347 0.766831 0  0.381139 0.762872 0  0.390582 0.741758 0  0.404072 0.720644 0  0.424307 0.707448 0  0.447239 0.702169 0  0.480964 0.704808 0  0.479615 0.688973 0  0.468823 0.675776 0  0.447239 0.669178 0  0.428354 0.669178 0  0.410817 0.6639 0  0.404072 0.653343 0  0.395978 0.628269 0  0.387884 0.59132 0  0.389233 0.576804 0  0.397327 0.557009 0  0.410817 0.547772 0  0.424307 0.546452 0  0.437797 0.55305 0  0.44589 0.566247 0  0.441843 0.582082 0  0.439145 0.597918 0  0.449937 0.609795 0  0.468823 0.603196 0  0.479615 0.59 0  0.489058 0.570205 0  0.494454 0.546452 0  0.505246 0.522699 0  0.522783 0.509502 0  0.55246 0.494986 0  0.586185 0.484429 0  0.615863 0.48047 0  0.64554 0.473872 0  0.667124 0.461995 0  0.683312 0.451438 0  0.696802 0.435603 0  0.703547 0.417128 0  0.71164 0.393374 0  0.718385 0.37226 0  0.72513 0.364342 0  0.739969 0.353785 0  0.745365 0.344548 0  0.745365 0.327393 0  0.737271 0.318155 0  0.718385 0.316835 0  0.700849 0.319475 0  0.677916 0.318155 0  0.650936 0.316835 0  0.610467 0.318155 0  0.57944 0.324753 0  0.559205 0.328712 0  0.53897 0.326073 0  1 1 0  1 0 0  0 0 0  0 1 0  0.532238 0.32476 0  0.528748 0.323052 0  0.52421 0.320833 0  0.518311 0.317947 0  0.503447 0.310783 0  0.494093 0.306347 0  0.481933 0.30058 0  0.452151 0.28749 0  0.392327 0.273691 0  0.379141 0.271971 0  0.360474 0.283066 0  0.369797 0.291752 0  0.391424 0.31238 0  0.399335 0.32012 0  0.40958 0.341964 0  0.393939 0.36039 0  0.386028 0.36383 0  0.364248 0.374254 0  0.349304 0.381994 0  0.315801 0.409841 0  0.292986 0.551616 0  0.350934 0.657818 0  0.360127 0.737055 0  0.360566 0.748664 0  0.385245 0.753692 0  0.396447 0.732578 0  0.466301 0.703661 0  0.459439 0.672908 0  0.418442 0.666195 0  0.400553 0.642441 0  0.39255 0.612619 0  0.389913 0.60058 0  0.392752 0.568197 0  0.444131 0.573132 0  0.458149 0.606926 0  0.500554 0.533026 0  0.571522 0.489019 0  0.632637 0.476741 0  0.689177 0.444553 0  0.708121 0.403702 0  0.715453 0.38144 0  0.732406 0.359166 0  0.745365 0.337089 0  0.72906 0.317581 0  0.629879 0.317522 0  0.59293 0.321884 0  0.568003 0.326991 0  0.55202 0.327775 0  0.546493 0.327054 0  0.542241 0.326499 0  1 0.9 0  1 0.8 0  1 0.7 0  1 0.6 0  1 0.5 0  1 0.4 0  1 0.3 0  1 0.2 0  1 0.1 0  0.9 0 0  0.8 0 0  0.7 0 0  0.6 0 0  0.5 0 0  0.4 0 0  0.3 0 0  0.2 0 0  0.1 0 0  0.1 1 0  0.2 1 0  0.3 1 0  0.4 1 0  0.5 1 0  0.6 1 0  0.7 1 0  0.8 1 0  0.9 1 0  0 0.1 0  0 0.2 0  0 0.3 0  0 0.4 0  0 0.5 0  0 0.6 0  0 0.7 0  0 0.8 0  0 0.9 0  0.535686 0.503191 0  0.753987 0.733359 0  0.167145 0.741436 0  0.173378 0.257204 0  0.733497 0.159862 0  0.554096 0.15788 0  0.849187 0.479053 0  0.488793 0.838452 0  0.138507 0.5592 0  0.30686 0.154944 0  0.348904 0.890523 0  0.058006 0.065099 0  0.069849 0.937917 0  0.93633 0.939704 0  0.934625 0.053613 0  0.343397 0.333452 0  0.473272 0.639943 0  0.433266 0.638072 0  0.415174 0.58269 0  0.533435 0.545042 0  0.390848 0.340652 0  0.53655 0.320242 0  0.127966 0.393775 0  0.83861 0.850455 0  0.635242 0.85513 0  0.852158 0.633441 0  0.653427 0.626848 0  0.861226 0.24292 0  0.166128 0.12976 0  0.216875 0.869871 0  0.458305 0.11179 0  0.84446 0.101633 0  0.202024 0.642528 0  0.644825 0.115855 0  0.671342 0.218358 0  0.251354 0.286186 0  0.262388 0.75153 0  0.063044 0.751571 0  0.068189 0.242962 0  0.435781 0.905395 0  0.934144 0.451133 0  0.568393 0.237622 0  0.814984 0.395506 0  0.752951 0.517227 0  0.456254 0.780699 0  0.073352 0.531116 0  0.337731 0.206071 0  0.363213 0.960371 0  0.330742 0.363592 0  0.516613 0.55705 0  0.369057 0.332992 0  0.500926 0.617309 0  0.498004 0.665534 0  0.412142 0.61178 0  0.454233 0.636604 0  0.422782 0.567496 0  0.541193 0.52148 0  0.439761 0.65557 0  0.5163 0.533672 0  0.414775 0.64562 0  0.40073 0.576135 0  0.430362 0.588034 0  0.385432 0.351492 0  0.400298 0.335397 0  0.398325 0.348194 0  0.528702 0.314885 0  0.540814 0.322334 0  0.534477 0.322953 0  0.619095 0.743583 0  0.885162 0.737972 0  0.08076 0.668849 0  0.90734 0.36634 0  0.094687 0.868937 0  0.759838 0.912152 0  0.901518 0.540898 0  0.747285 0.607479 0  0.229182 0.071641 0  0.069154 0.450091 0  0.244775 0.203309 0  0.076534 0.331755 0  0.897847 0.167826 0  0.578909 0.911415 0  0.077133 0.146341 0  0.477215 0.203448 0  0.922631 0.869341 0  0.517415 0.074785 0  0.297026 0.827793 0  0.783271 0.246505 0  0.74519 0.061079 0  0.36033 0.069068 0  0.210313 0.475228 0  0.859426 0.928758 0  0.574548 0.609182 0  0.243069 0.383398 0  0.283099 0.934598 0  0.417416 0.843141 0  0.643942 0.553164 0  0.112687 0.079336 0  0.281357 0.658386 0  0.765043 0.436177 0  0.611361 0.198486 0  0.234496 0.58911 0  0.206479 0.702638 0  0.679608 0.155818 0  0.62682 0.259978 0  0.690538 0.264164 0  0.448938 0.956308 0  0.808154 0.328403 0  0.379583 0.91913 0  0.308083 0.297769 0  0.312358 0.730249 0  0.563101 0.278576 0  0.435597 0.746198 0  0.385475 0.225229 0  0.572248 0.518034 0  0.357864 0.35422 0  0.497647 0.641694 0  0.458101 0.655768 0  0.360474 0.310727 0  0.467038 0.620139 0  0.47798 0.659909 0  0.41102 0.628072 0  0.48324 0.609015 0  0.427544 0.617941 0  0.388633 0.328253 0  0.405336 0.599404 0  0.408351 0.565178 0  0.42395 0.600985 0  0.431562 0.576523 0  0.424905 0.655198 0  0.398064 0.58782 0  0.427739 0.557934 0  0.519291 0.303443 0  0.53142 0.320293 0  0.5449 0.323642 0  0.537166 0.323513 0  0.153974 0.920841 0  0.918186 0.67343 0  0.759946 0.820588 0  0.537526 0.783091 0  0.816532 0.545843 0  0.813991 0.178083 0  0.836774 0.702023 0  0.149815 0.318856 0  0.662287 0.923338 0  0.680146 0.791192 0  0.708961 0.663172 0  0.937278 0.287318 0  0.574622 0.688166 0  0.589474 0.076262 0  0.502822 0.926683 0  0.222269 0.811068 0  0.380457 0.164786 0  0.15321 0.684154 0  0.458063 0.051413 0  0.161702 0.056026 0  0.199351 0.198818 0  0.298946 0.095532 0  0.902465 0.795949 0  0.121139 0.791477 0  0.906269 0.112287 0  0.056109 0.822332 0  0.512172 0.13237 0  0.940964 0.741805 0  0.888887 0.408777 0  0.354543 0.825964 0  0.808736 0.068638 0  0.068507 0.394071 0  0.719105 0.563843 0  0.247287 0.149664 0  0.293062 0.237128 0  0.240524 0.434997 0  0.141255 0.623289 0  0.945202 0.160621 0  0.502914 0.247629 0  0.144669 0.480811 0  0.665025 0.060817 0  0.728047 0.224344 0  0.861995 0.313312 0  0.200068 0.534235 0  0.253262 0.965623 0  0.893804 0.49307 0  0.604391 0.572456 0  0.947088 0.345347 0  0.439372 0.227307 0  0.629847 0.159823 0  0.273405 0.880181 0  0.302744 0.776823 0  0.781502 0.295365 0  0.275342 0.349602 0  0.728385 0.472798 0  0.229136 0.246478 0  0.807794 0.480346 0  0.709476 0.112786 0  0.275506 0.694991 0  0.771674 0.394419 0  0.449715 0.861802 0  0.419159 0.799696 0  0.674851 0.503139 0  0.280443 0.61016 0  0.572443 0.192538 0  0.393113 0.87525 0  0.405555 0.948428 0  0.330942 0.934103 0  0.540509 0.597101 0  0.312763 0.668931 0  0.254368 0.540179 0  0.595265 0.25915 0  0.606679 0.234099 0  0.657131 0.279138 0  0.722458 0.279478 0  0.333 0.308056 0  0.351529 0.246142 0  0.455714 0.725794 0  0.585239 0.295143 0  0.340062 0.72492 0  0.545593 0.293773 0  0.555449 0.545426 0  0.414311 0.737314 0  0.590854 0.502323 0  0.350507 0.368444 0  0.484423 0.625665 0  0.483899 0.674542 0  0.378137 0.317274 0  0.446416 0.646404 0  0.373532 0.347654 0  0.446876 0.619769 0  0.466106 0.666068 0  0.437545 0.609254 0  0.434988 0.565726 0  0.41462 0.656829 0  0.418803 0.556961 0  0.398425 0.327446 0  0.517803 0.310421 0  0.549516 0.322918 0  0.57701 0.842889 0  0.829127 0.773906 0  0.643235 0.684732 0  0.134281 0.207734 0  0.865997 0.055966 0  0.680959 0.723345 0  0.165229 0.841555 0  0.54558 0.959672 0  0.783726 0.656439 0  0.913315 0.595533 0  0.699439 0.860667 0  0.785839 0.125076 0  0.551673 0.037713 0  0.920097 0.223214 0  0.206406 0.299726 0  0.087064 0.596401 0  0.935644 0.394252 0  0.964557 0.252582 0  0.230124 0.928346 0  0.120579 0.271764 0  0.857215 0.524082 0  0.767098 0.555147 0  0.936094 0.507131 0  0.804064 0.59585 0  0.700565 0.608273 0  0.429773 0.174231 0  0.117746 0.727333 0  0.538962 0.730231 0  0.862761 0.359173 0  0.821444 0.284046 0  0.193552 0.35818 0  0.234923 0.505555 0  0.193209 0.421217 0  0.220144 0.755896 0  0.594015 0.131642 0  0.283813 0.195855 0  0.517519 0.213961 0  0.553509 0.639116 0  0.280391 0.378018 0  0.852183 0.436817 0  0.746983 0.197173 0  0.821806 0.221318 0  0.449853 0.828453 0  0.883758 0.453926 0  0.183484 0.589542 0  0.348384 0.129314 0  0.255254 0.838525 0  0.504849 0.798516 0  0.320344 0.863432 0  0.611669 0.525425 0  0.265864 0.804962 0  0.72056 0.521442 0  0.613372 0.610122 0  0.481262 0.881068 0  0.655778 0.191988 0  0.701921 0.196918 0  0.565826 0.573181 0  0.46914 0.240927 0  0.343219 0.173284 0  0.888786 0.278502 0  0.244113 0.675093 0  0.739546 0.417914 0  0.784023 0.355942 0  0.326805 0.265549 0  0.248616 0.634948 0  0.789183 0.413964 0  0.764107 0.476606 0  0.32086 0.698956 0  0.334735 0.791464 0  0.53448 0.258468 0  0.395208 0.824575 0  0.309962 0.638947 0  0.263264 0.22712 0  0.756395 0.267254 0  0.639281 0.224663 0  0.358631 0.85116 0  0.309751 0.332089 0  0.663461 0.246436 0  0.424083 0.871774 0  0.269645 0.445719 0  0.272183 0.572741 0  0.624492 0.294638 0  0.717827 0.250266 0  0.408215 0.763744 0  0.485997 0.274924 0  0.288138 0.274311 0  0.410524 0.242487 0  0.741513 0.385737 0  0.691284 0.483519 0  0.515531 0.581849 0  0.463005 0.753402 0  0.681919 0.
[...]
<PointData  Vectors="u"> 
<DataArray  type="Float32"  Name="u"  NumberOfComponents="3" format="ascii">1.026018e-02 5.020343e-01 0.000000e+00  1.332339e-02 5.165436e-01 0.000000e+00  1.973621e-02 5.406608e-01 0.000000e+00  2.176804e-02 5.592050e-01 0.000000e+00  2.266319e-02 5.792557e-01 0.000000e+00  2.264822e-02 6.194383e-01 0.000000e+00  2.810268e-02 6.538848e-01 0.000000e+00  3.313146e-02 6.939597e-01 0.000000e+00  4.263756e-02 7.022838e-01 0.000000e+00  4.534455e-02 7.023037e-01 0.000000e+00  4.881777e-02 7.022704e-01 0.000000e+00  5.011130e-02 7.013636e-01 0.000000e+00  5.111447e-02 6.928474e-01 0.000000e+00  4.563034e-02 6.779001e-01 0.000000e+00  3.053567e-02 6.805861e-01 0.000000e+00  1.284866e-02 6.922300e-01 0.000000e+00  -6.843805e-03 7.086781e-01 0.000000e+00  -2.573023e-02 7.281393e-01 0.000000e+00  -3.711657e-02 7.430554e-01 0.000000e+00  -4.503767e-02 7.556675e-01 0.000000e+00  -5.040467e-02 7.660343e-01 0.000000e+00  -5.214064e-02 7.690344e-01 0.000000e+00  -5.368295e-02 7.720751e-01 0.000000e+00  -6.201495e-02 7.851570e-01 0.000000e+00  -6.951968e-02 7.985844e-01 0.000000e+00  -7.600297e-02 8.128337e-01 0.000000e+00  -8.136263e-02 8.284997e-01 0.000000e+00  -7.975378e-02 8.401937e-01 0.000000e+00  -7.595767e-02 8.537295e-01 0.000000e+00  -7.232569e-02 8.722710e-01 0.000000e+00  -6.560247e-02 9.461927e-01 0.000000e+00  -6.630140e-02 1.029747e+00 0.000000e+00  -6.569403e-02 1.111787e+00 0.000000e+00  -7.150286e-02 1.198705e+00 0.000000e+00  -7.898775e-02 1.245031e+00 0.000000e+00  -8.848680e-02 1.271511e+00 0.000000e+00  -9.728198e-02 1.282823e+00 0.000000e+00  -1.219729e-01 1.310103e+00 0.000000e+00  -1.580875e-01 1.338689e+00 0.000000e+00  -1.647807e-01 1.342411e+00 0.000000e+00  -1.683078e-01 1.345903e+00 0.000000e+00  -1.678096e-01 1.348421e+00 0.000000e+00  -1.669845e-01 1.350132e+00 0.000000e+00  -1.647087e-01 1.350017e+00 0.000000e+00  -1.579530e-01 1.347592e+00 0.000000e+00  -1.419192e-01 1.343645e+00 0.000000e+00  -1.078452e-01 1.326621e+00 0.000000e+00  -4.338171e-02 1.276500e+00 0.000000e+00  3.755365e-02 1.219207e+00 0.000000e+00  1.021175e-01 1.185652e+00 0.000000e+00  1.623194e-01 1.151818e+00 0.000000e+00  1.985879e-01 1.121371e+00 0.000000e+00  2.046185e-01 1.092545e+00 0.000000e+00  1.971428e-01 1.055900e+00 0.000000e+00  1.798955e-01 9.699253e-01 0.000000e+00  1.614880e-01 8.573600e-01 0.000000e+00  1.513116e-01 7.497327e-01 0.000000e+00  1.386085e-01 6.311255e-01 0.000000e+00  1.230235e-01 5.426749e-01 0.000000e+00  1.102428e-01 4.782034e-01 0.000000e+00  9.505832e-02 4.176381e-01 0.000000e+00  8.172631e-02 3.781947e-01 0.000000e+00  6.530104e-02 3.440661e-01 0.000000e+00  5.232743e-02 3.238545e-01 0.000000e+00  4.681715e-02 3.153362e-01 0.000000e+00  3.654763e-02 2.934254e-01 0.000000e+00  2.886398e-02 2.800511e-01 0.000000e+00  1.686948e-02 2.724046e-01 0.000000e+00  9.755243e-03 2.800271e-01 0.000000e+00  5.639856e-03 3.011890e-01 0.000000e+00  4.659830e-03 3.195396e-01 0.000000e+00  2.694723e-03 3.432455e-01 0.000000e+00  6.309431e-04 3.740211e-01 0.000000e+00  1.468106e-04 4.239651e-01 0.000000e+00  4.080741e-03 4.624957e-01 0.000000e+00  7.559782e-03 4.831994e-01 0.000000e+00  9.805792e-03 4.994785e-01 0.000000e+00  0.000000e+00 0.000000e+00 0.000000e+00  0.000000e+00 0.000000e+00 0.000000e+00  6.594571e-02 6.717639e-01 0.000000e+00  -2.834439e-02 7.546076e-01 0.000000e+00  1.037536e-02 5.035224e-01 0.000000e+00  1.069063e-02 5.056641e-01 0.000000e+00  1.123889e-02 5.084701e-01 0.000000e+00  1.208759e-02 5.120478e-01 0.000000e+00  1.452439e-02 5.205882e-01 0.000000e+00  1.604410e-02 5.256365e-01 0.000000e+00  1.783383e-02 5.320397e-01 0.000000e+00  2.090816e-02 5.488294e-01 0.000000e+00  2.285565e-02 5.936855e-01 0.000000e+00  2.276713e-02 6.065336e-01 0.000000e+00  2.715008e-02 6.749694e-01 0.000000e+00  2.947858e-02 6.855558e-01 0.000000e+00  3.712032e-02 6.990863e-01 0.000000e+00  4.037575e-02 7.014983e-01 0.000000e+00  4.700934e-02 7.023045e-01 0.000000e+00  5.049539e-02 6.999084e-01 0.000000e+00  5.090663e-02 6.971404e-01 0.000000e+00  5.078657e-02 6.879507e-01 0.000000e+00  4.939509e-02 6.824435e-01 0.000000e+00  3.965737e-02 6.773377e-01 0.000000e+00  -1.794282e-02 7.194799e-01 0.000000e+00  -4.849215e-02 7.622746e-01 0.000000e+00  -5.648222e-02 7.762136e-01 0.000000e+00  -5.919033e-02 7.801081e-01 0.000000e+00  -8.004233e-02 8.213543e-01 0.000000e+00  -8.114310e-02 8.339067e-01 0.000000e+00  -7.024402e-02 8.961774e-01 0.000000e+00  -6.651300e-02 1.155424e+00 0.000000e+00  -8.449165e-02 1.261997e+00 0.000000e+00  -1.069987e-01 1.294031e+00 0.000000e+00  -1.390469e-01 1.325239e+00 0.000000e+00  -1.511299e-01 1.334284e+00 0.000000e+00  -1.670491e-01 1.344091e+00 0.000000e+00  -1.529244e-01 1.346771e+00 0.000000e+00  -5.330323e-03 1.252420e+00 0.000000e+00  2.049488e-01 1.104553e+00 0.000000e+00  1.693763e-01 9.074205e-01 0.000000e+00  1.442994e-01 6.839895e-01 0.000000e+00  1.040407e-01 4.508706e-01 0.000000e+00  7.230318e-02 3.575071e-01 0.000000e+00  5.766090e-02 3.312296e-01 0.000000e+00  4.214371e-02 3.059136e-01 0.000000e+00  2.377856e-02 2.747007e-01 0.000000e+00  7.464256e-03 2.892874e-01 0.000000e+00  2.802914e-05 3.994121e-01 0.000000e+00  2.015283e-03 4.464826e-01 0.000000e+00  6.073919e-03 4.749758e-01 0.000000e+00  8.217619e-03 4.890704e-01 0.000000e+00  8.849870e-03 4.936478e-01 0.000000e+00  9.375698e-03 4.970049e-01 0.000000e+00  0.000000e+00 0.000000e+00 0.000000e+00  0.000000e+00 0.000000e+00 0.000000e+00  0.000000e+00 0.000000e+00 0.000000e+00  0.000000e+00 0.000000e+00 0.000000e+00  0.000000e+00 0.000000e+00 0.000000e+00  0.000000e+00 0.000000e+00 0.000000e+00  0.000000e+00 0.000000e+00 0.000000e+00  0.000000e+00 0.000000e+00 0.000000e+00  0.000000e+00 0.000000e+00 0.000000e+00  1.194231e-03 1.073182e-01 0.000000e+00  3.562141e-03 2.134048e-01 0.000000e+00  7.601213e-03 3.152082e-01 0.000000e+00  1.379962e-02 4.094024e-01 0.000000e+00  2.209164e-02 4.924868e-01 0.000000e+00  3.217159e-02 5.619480e-01 0.000000e+00  4.386039e-02 6.145840e-01 0.000000e+00  5.488420e-02 6.480860e-01 0.000000e+00  6.261307e-02 6.655458e-01 0.000000e+00  -3.143051e-02 7.611556e-01 0.000000e+00  -3.657823e-02 7.753035e-01 0.000000e+00  -3.990755e-02 7.928963e-01 0.000000e+00  -3.544237e-02 8.031815e-01 0.000000e+00  -1.982439e-02 7.832598e-01 0.000000e+00  -1.428362e-04 7.112501e-01 0.000000e+00  1.192245e-02 5.855690e-01 0.000000e+00  1.242254e-02 4.203356e-01 0.000000e+00  5.926389e-03 2.268304e-01 0.000000e+00  7.104630e-02 6.746296e-01 0.000000e+00  7.768897e-02 6.798177e-01 0.000000e+00  7.852135e-02 6.861394e-01 0.000000e+00  6.936461e-02 6.940473e-01 0.000000e+00  5.098126e-02 7.045622e-01 0.000000e+00  2.829629e-02 7.175160e-01 0.000000e+00  6.771114e-03 7.310190e-01 0.000000e+00  -1.051962e-02 7.427217e-01 0.000000e+00  -2.257579e-02 7.509774e-01 0.000000e+00  1.903914e-01 1.021747e+00 0.000000e+00  6.139330e-02 4.734632e-01 0.000000e+00  -2.306541e-02 7.448535e-01 0.000000e+00  6.792367e-02 6.773569e-01 0.000000e+00  3.166154e-03 2.880216e-01 0.000000e+00  1.441401e-02 4.628962e-01 0.000000e+00  1.800379e-02 1.977083e-01 0.000000e+00  -3.017449e-02 8.325591e-01 0.000000e+00  1.754298e-02 7.111884e-01 0.000000e+00  4.404945e-02 6.337850e-01 0.000000e+00  -4.808826e-02 8.027020e-01 0.000000e+00  6.638117e-02 6.720176e-01 0.000000e+00  -2.891725e-02 7.554714e-01 0.000000e+00  3.011203e-03 1.450195e-01 0.000000e+00  4.818429e-04 7.080814e-02 0.000000e+00  4.786693e-02 6.806512e-01 0.000000e+00  -2.506414e-02 1.145256e+00 0.000000e+00  -7.518827e-02 1.258378e+00 0.000000e+00  -1.535606e-01 1.342215e+00 0.000000e+00  1.749625e-01 1.050625e+00 0.000000e+00  4.674832e-02 6.988170e-01 0.000000e+00  1.048355e-02 5.004608e-01 0.000000e+00  5.903252e-02 6.899603e-01 0.000000e+00  1.950618e-02 3.331395e-01 0.000000e+00  2.549808e-02 6.966878e-01 0.000000e+00  3.463243e-02 2.410698e-01 0.000000e+00  1.208011e-01 6.785437e-01 0.000000e+00  -1.271233e-03 1.532633e-01 0.000000e+00  6.268545e-02 6.668971e-01 0.000000e+00  -3.845014e-02 7.691529e-01 0.000000e+00  2.442201e-02 5.341517e-01 0.000000e+00  1.314935e-03 1.688822e-01 0.000000e+00  -1.437304e-02 7.310089e-01 0.000000e+00  8.432395e-03 3.756905e-01 0.000000e+00  3.369674e-03 3.538051e-01 0.000000e+00  6.099899e-02 6.725432e-01 0.000000e+00  -3.919467e-02 7.610496e-01 0.000000e+00  -1.028553e-02 7.385676e-01 0.000000e+00  7.486565e-02 6.816921e-01 0.000000e+00  -3.812509e-02 8.160483e-01 0.000000e+00  2.377339e-04 6.963578e-02 0.000000e+00  9.846653e-03 4.596865e-01 0.000000e+00  1.177529e-02 2.269146e-01 0.000000e+00  6.441532e-02 3.731633e-01 0.000000e+00  -5.434381e-02 8.557475e-01 0.000000e+00  3.457206e-02 7.075965e-01 0.000000e+00  3.716818e-02 6.298835e-01 0.000000e+00  -3.995994e-02 8.036952e-01 0.000000e+00  4.949093e-02 6.797291e-01 0.000000e+00  1.687683e-01 1.096343e+00 0.000000e+00  4.516186e-02 6.901439e-01 0.000000e+00  4.525779e-02 1.109322e+00 0.000000e+00  -3.441571e-03 1.038849e+00 0.000000e+00  -1.215502e-01 1.319813e+00 0.000000e+00  -4.777873e-02 1.205569e+00 0.000000e+00  -1.620691e-01 1.347091e+00 0.000000e+00  1.840575e-01 1.017814e+00 0.000000e+00  -7.259305e-02 1.227215e+00 0.000000e+00  1.930128e-01 1.083382e+00 0.000000e+00  -9.243228e-02 1.280015e+00 0.000000e+00  -1.627137e-01 1.343616e+00 0.000000e+00  -1.392686e-01 1.339074e+00 0.000000e+00  4.925795e-02 6.969649e-01 0.000000e+00  4.525723e-02 7.012823e-01 0.000000e+00  4.856531e-02 7.009059e-01 0.000000e+00  1.183480e-02 5.051767e-01 0.000000e+00  9.785300e-03 4.976076e-01 0.000000e+00  1.048254e-02 5.021119e-01 0.000000e+00  6.515413e-02 7.525780e-01 0.000000e+00  1.901479e-02 2.155648e-01 0.000000e+00  1.895030e-03 7.279278e-01 0.000000e+00  -2.671298e-03 1.035768e-01 0.000000e+00  -2.680678e-02 7.527085e-01 0.000000e+00  2.007458e-02 4.887303e-01 0.000000e+00  1.656764e-02 1.296407e-01 0.000000e+00  8.229967e-02 4.357033e-01 0.000000e+00  5.318591e-02 6.480429e-01 0.000000e+00  5.375815e-02 6.978154e-01 0.000000e+00  5.788337e-02 6.623210e-01 0.000000e+00  7.116320e-02 6.872834e-01 0.000000e+00  -3.769375e-04 1.116271e-01 0.000000e+00  5.672351e-04 7.503261e-01 0.000000e+00  7.024248e-02 6.755318e-01 0.000000e+00  2.133953e-02 5.279555e-01 0.000000e+00  5.236941e-03 1.672374e-01 0.000000e+00  1.973412e-02 4.855995e-01 0.000000e+00  -4.891265e-02 7.817365e-01 0.000000e+00  2.331820e-03 2.384167e-01 0.000000e+00  4.923036e-03 2.723986e-01 0.000000e+00  3.620652e-02 5.933546e-01 0.000000e+00  2.919004e-02 6.954438e-01 0.000000e+00  1.047578e-02 3.027241e-01 0.000000e+00  1.228422e-01 9.159866e-01 0.000000e+00  5.087430e-02 6.817556e-01 0.000000e+00  -4.188536e-02 7.882429e-01 0.000000e+00  -5.181224e-02 8.251311e-01 0.000000e+00  1.376290e-01 6.818476e-01 0.000000e+00  6.407600e-02 6.690570e-01 0.000000e+00  -3.450155e-02 7.475557e-01 0.000000e+00  3.598016e-02 3.096826e-01 0.000000e+00  7.238380e-03 4.140941e-01 0.000000e+00  -1.066842e-02 7.220756e-01 0.000000e+00  -2.460826e-02 7.433824e-01 0.000000e+00  5.155411e-03 3.432698e-01 0.000000e+00  2.544795e-03 4.022114e-01 0.000000e+00  2.890248e-03 3.333608e-01 0.000000e+00  -3.062649e-02 8.060070e-01 0.000000e+00  5.876940e-03 2.204782e-01 0.000000e+00  -4.328313e-02 8.086426e-01 0.000000e+00  5.283023e-02 6.690267e-01 0.000000e+00  -4.567072e-02 7.675717e-01 0.000000e+00  8.528110e-03 4.710934e-01 0.000000e+00  -7.009035e-02 8.544217e-01 0.000000e+00  2.581277e-02 5.981149e-01 0.000000e+00  1.688423e-01 9.196801e-01 0.000000e+00  4.940578e-02 6.865242e-01 0.000000e+00  1.160443e-02 1.080151e+00 0.000000e+00  -5.841878e-02 1.172156e+00 0.000000e+00  3.929180e-02 6.831365e-01 0.000000e+00  -1.042717e-02 1.192935e+00 0.000000e+00  -3.597307e-02 1.100662e+00 0.000000e+00  -1.067339e-01 1.301556e+00 0.000000e+00  3.778526e-02 1.164647e+00 0.000000e+00  -9.247828e-02 1.299414e+00 0.000000e+00  4.300488e-02 6.979994e-01 0.000000e+00  -1.421644e-01 1.332919e+00 0.000000e+00  -1.657158e-01 1.346444e+00 0.000000e+00  -1.229766e-01 1.328304e+00 0.000000e+00  -1.530598e-01 1.344762e+00 0.000000e+00  -8.227442e-02 1.258626e+00 0.000000e+00  -1.565319e-01 1.339790e+00 0.000000e+00  -1.649089e-01 1.349100e+00 0.000000e+00  1.419335e-02 5.101407e-01 0.000000e+00  1.096610e-02 5.038530e-01 0.000000e+00  9.205074e-03 4.945479e-01 0.000000e+00  1.016280e-02 5.004331e-01 0.000000e+00  -3.365120e-02 7.633561e-01 0.000000e+00  1.220526e-02 1.369646e-01 0.000000e+00  3.795488e-02 4.803457e-01 0.000000e+00  2.164502e-03 8.458414e-01 0.000000e+00  4.118577e-02 2.704538e-01 0.000000e+00  7.371183e-04 2.033558e-01 0.000000e+00  3.759129e-02 2.963077e-01 0.000000e+00  6.727461e-02 6.831785e-01 0.000000e+00  1.502759e-02 6.470210e-01 0.000000e+00  5.302699e-02 6.299422e-01 0.000000e+00  9.382135e-02 5.487774e-01 0.000000e+00  -2.851067e-03 6.589414e-02 0.000000e+00  7.465762e-02 8.670669e-01 0.000000e+00  1.358202e-02 4.245553e-01 0.000000e+00  -2.075096e-02 7.980506e-01 0.000000e+00  -3.730695e-02 7.628584e-01 0.000000e+00  3.074185e-02 5.940409e-01 0.000000e+00  -1.244893e-02 7.342412e-01 0.000000e+00  2.567164e-02 5.284997e-01 0.000000e+00  5.939037e-02 6.610238e-01 0.000000e+00  6.346947e-02 6.693184e-01 0.000000e+00  4.456129e-02 6.272951e-01 0.000000e+00  1.140561e-02 1.962170e-01 0.000000e+00  -2.262621e-02 7.470396e-01 0.000000e+00  3.106727e-04 1.021420e-01 0.000000e+00  -1.900928e-02 7.461053e-01 0.000000e+00  1.905817e-02 4.950416e-01 0.000000e+00  5.692239e-03 1.111284e-01 0.000000e+00  1.740201e-03 1.301053e-01 0.000000e+00  -5.754695e-02 8.015159e-01 0.000000e+00  2.689716e-03 2.062456e-01 0.000000e+00  6.413902e-02 6.924121e-01 0.000000e+00  9.499748e-02 4.752747e-01 0.000000e+00  5.418732e-02 6.534351e-01 0.000000e+00  5.127502e-02 6.576675e-01 0.000000e+00  3.726514e-02 6.875937e-01 0.000000e+00  1.546215e-03 7.227003e-01 0.000000e+00  -1.983835e-04 5.978337e-02 0.000000e+00  1.896545e-02 5.139201e-01 0.000000e+00  3.751189e-02 6.987567e-01 0.000000e+00  8.788131e-03 3.527593e-01 0.000000e+00  2.839905e-03 2.950097e-01 0.000000e+00  -1.539549e-03 1.562328e-01 0.000000e+00  1.277234e-02 7.069210e-01 0.000000e+00  -3.937841e-02 7.833886e-01 0.000000e+00  1.238420e-02 1.339568e-01 0.000000e+00  1.466023e-01 8.223890e-01 0.000000e+00  -4.848538e-03 5.265915e-02 0.000000e+00  2.325206e-02 5.561596e-01 0.000000e+00  7.706314e-03 3.931268e-01 0.000000e+00  -4.416798e-02 7.822377e-01 0.000000e+00  -4.832363e-02 7.738899e-01 0.000000e+00  6.131193e-03 2.432525e-01 0.000000e+00  5.438300e-02 6.769865e-01 0.000000e+00  6.716712e-02 3.930738e-01 0.000000e+00  6.255556e-02 6.707084e-01 0.000000e+00  2.965225e-02 2.613193e-01 0.000000e+00  5.188629e-03 3.110815e-01 0.000000e+00  -3.661729e-02 7.538679e-01 0.000000e+00  2.606185e-02 2.816438e-01 0.000000e+00  -4.120745e-02 8.262739e-01 0.000000e+00  -6.060824e-02 8.336433e-01 0.000000e+00  1.163879e-01 5.517900e-01 0.000000e+00  -2.771662e-02 7.352780e-01 0.000000e+00  1.132711e-02 4.503798e-01 0.000000e+00  -4.894192e-02 8.147474e-01 0.000000e+00  -3.752921e-02 8.088261e-01 0.000000e+00  -4.307505e-02 7.986686e-01 0.000000e+00  1.146704e-01 1.025619e+00 0.000000e+00  -4.203816e-02 7.566732e-01 0.000000e+00  -2.357497e-03 7.107959e-01 0.000000e+00  5.038862e-03 4.360846e-01 0.000000e+00  5.580150e-03 4.218056e-01 0.000000e+00  1.553047e-03 3.686925e-01 0.000000e+00  4.630477e-03 2.999423e-01 0.000000e+00  4.690424e-02 6.724936e-01 0.000000e+00  3.105625e-02 6.334195e-01 0.000000e+00  -6.944340e-02 8.772957e-01 0.000000e+00  3.937869e-03 4.514544e-01 0.000000e+00  -5.010362e-02 7.716191e-01 0.000000e+00  1.088869e-02 4.893287e-01 0.000000e+00  1.670387e-01 9.857567e-01 0.000000e+00  -7.607057e-02 8.419730e-01 0.000000e+00  1.607801e-01 8.488793e-01 0.000000e+00  4.983256e-02 6.838516e-01 0.000000e+00  8.493316e-03 1.137301e+00 0.000000e+00  -3.646022e-02 1.055150e+00 0.000000e+00  3.937947e-02 6.932347e-01 0.000000e+00  -6.340574e-02 1.216787e+00 0.000000e+00  4.845995e-02 6.923981e-01 0.000000e+00  -4.996122e-02 1.255673e+00 0.000000e+00  -5.849197e-02 1.133577e+00 0.000000e+00  -8.394651e-02 1.303997e+00 0.000000e+00  -1.602720e-01 1.347810e+00 0.000000e+00  -8.857704e-02 1.271827e+00 0.000000e+00  -1.663961e-01 1.348614e+00 0.000000e+00  4.281059e-02 7.009862e-01 0.000000e+00  1.344119e-02 5.118189e-01 0.000000e+00  8.695088e-03 4.906602e-01 0.000000e+00  1.070727e-02 7.748359e-01 0.000000e+00  3.161291e-02 3.346303e-01 0.000000e+00  9.873254e-02 7.104675e-01 0.000000e+00  6.964013e-02 6.765405e-01 0.000000e+00  1.520867e-03 1.448539e-01 0.000000e+00  8.020597e-02 6.262808e-01 0.000000e+00  -3.187412e-02 7.577557e-01 0.000000e+00  -1.027115e-02 7.660362e-01 0.000000e+00  6.308177e-02 3.826527e-01 0.000000e+00  1.446734e-02 1.238165e-01 0.000000e+00  3.132631e-02 5.935330e-01 0.000000e+00  2.290786e-03 2.320636e-01 0.000000e+00  1.733904e-02 4.542498e-01 0.000000e+00  -1.294053e-03 8.678598e-02 0.000000e+00  6.461734e-02 6.778911e-01 0.000000e+00  1.674256e-02 7.170227e-01 0.000000e+00  6.196448e-04 6.621806e-02 0.000000e+00  -7.721613e-04 3.714734e-02 0.000000e+00  -3.907722e-02 7.767934e-01 0.000000e+00  7.144701e-02 6.816616e-01 0.000000e+00  2.440648e-02 1.959869e-01 0.000000e+00  6.575882e-02 3.660727e-01 0.000000e+00  1.060788e-02 7.184751e-02 0.000000e+00  5.330597e-02 3.145016e-01 0.000000e+00  1.064980e-01 5.457913e-01 0.000000e+00  2.516859e-02 5.602192e-01 0.000000e+00  -1.382894e-02 7.382872e-01 0.000000e+00  2.211580e-02 8.917644e-01 0.000000e+00  1.634193e-04 1.597727e-01 0.000000e+00  1.370247e-03 2.002639e-01 0.000000e+00  5.965710e-02 6.831372e-01 0.000000e+00  1.425219e-02 7.009691e-01 0.000000e+00  4.691205e-02 6.889193e-01 0.000000e+00  -3.281260e-02 7.543202e-01 0.000000e+00  1.157593e-02 4.249081e-01 0.000000e+00  5.028172e-02 6.509913e-01 0.000000e+00  1.739186e-02 4.991648e-01 0.000000e+00  8.660386e-02 9.543593e-01 0.000000e+00  4.898314e-02 6.789397e-01 0.000000e+00  9.860819e-03 1.848042e-01 0.000000e+00  2.400408e-03 2.749140e-01 0.000000e+00  2.570488e-04 1.961854e-01 0.000000e+00  -4.672664e-02 8.361509e-01 0.000000e+00  7.267635e-03 1.426539e-01 0.000000e+00  1.155183e-03 7.181250e-01 0.000000e+00  3.685881e-02 6.084009e-01 0.000000e+00  -4.278082e-02 7.731286e-01 0.000000e+00  -2.336713e-02 8.511685e-01 0.000000e+00  -4.982212e-02 7.931164e-01 0.000000e+00  1.528944e-01 7.827693e-01 0.000000e+00  -4.349512e-02 7.704552e-01 0.000000e+00  8.595138e-02 4.445069e-01 0.000000e+00  1.312364e-01 7.947910e-01 0.000000e+00  -2.950148e-02 8.180076e-01 0.000000e+00  4.835603e-03 3.690401e-01 0.000000e+00  3.305989e-03 3.216996e-01 0.000000e+00  1.471054e-01 9.544876e-01 0.000000e+00  2.194102e-02 5.361479e-01 0.000000e+00  3.671732e-02 6.190784e-01 0.000000e+00  -2.735696e-03 1.226110e-01 0.000000e+00  -2.834957e-02 7.439469e-01 0.000000e+00  4.704858e-02 3.356026e-01 0.000000e+00  1.500159e-02 2.527148e-01 0.000000e+00  4.437955e-02 6.571517e-01 0.000000e+00  -2.365687e-02 7.357002e-01 0.000000e+00  2.211220e-02 2.665477e-01 0.000000e+00  4.655627e-02 3.307716e-01 0.000000e+00  -4.513818e-02 7.639051e-01 0.000000e+00  -5.647950e-02 7.865513e-01 0.000000e+00  1.431267e-02 4.921894e-01 0.000000e+00  -5.844561e-02 8.197048e-01 0.000000e+00  -3.915335e-02 7.496014e-01 0.000000e+00  5.653820e-02 6.624580e-01 0.000000e+00  4.409336e-03 2.664449e-01 0.000000e+00  4.035165e-03 3.874380e-01 0.000000e+00  -5.400968e-02 8.048235e-01 0.000000e+00  5.252359e-02 6.750833e-01 0.000000e+00  2.583498e-03 3.623537e-01 0.000000e+00  -4.537628e-02 8.214132e-01 0.000000e+00  2.916072e-02 6.867755e-01 0.000000e+00  -1.704390e-02 7.226819e-01 0.000000e+00  5.977147e-04 4.059208e-01 0.000000e+00  3.306943e-03 3.054743e-01 0.000000e+00  -7.095280e-02 8.333135e-01 0.000000e+00  2.015808e-02 5.278085e-01 0.000000e+00  5.557871e-02 6.665731e-01 0.000000e+00  2.348292e-02 5.781251e-01 0.000000e+00  4.093589e-02 3.123421e-01 0.000000e+00  1.006204e-01 4.879115e-01 0.000000e+00  1.257818e-01 1.102404e+00 0.000000e+00  -5.847211e-02 8.726198e-01 0.000000e+00  2.703253e-03 3.