<?xml version="1.0"?>
<VTKFile type="UnstructuredGrid"  version="0.1"  >
<UnstructuredGrid>
<Piece  NumberOfPoints="525" NumberOfCells="924">
<Points>
<DataArray  type="Float64"  NumberOfComponents="3"  format="ascii">0 0 0  2.2 0 0  2.2 0.41 0  0 0.41 0  0.15 0.2 0  0.25 0.2 0  0.2 0.15 0  0.2 0.25 0  0.104762 0 0  0.209524 0 0  0.314286 0 0  0.419048 0 0  0.52381 0 0  0.628571 0 0  0.733333 0 0  0.838095 0 0  0.9428569999999999 0 0  1.04762 0 0  1.15238 0 0  1.25714 0 0  1.3619 0 0  1.46667 0 0  1.57143 0 0  1.67619 0 0  1.78095 0 0  1.88571 0 0  1.99048 0 0  2.09524 0 0  2.2 0.1025 0  2.2 0.205 0  2.2 0.3075 0  2.1 0.41 0  2 0.41 0  1.9 0.41 0  1.8 0.41 0  1.7 0.41 0  1.6 0.41 0  1.5 0.41 0  1.4 0.41 0  1.3 0.41 0  1.2 0.41 0  1.1 0.41 0  1 0.41 0  0.9 0.41 0  0.8 0.41 0  0.7 0.41 0  0.6 0.41 0  0.5 0.41 0  0.4 0.41 0  0.3 0.41 0  0.2 0.41 0  0.1 0.41 0  0 0.3075 0  0 0.205 0  0 0.1025 0  0.156699 0.225 0  0.175 0.243301 0  0.225 0.243301 0  0.243301 0.225 0  0.243301 0.175 0  0.225 0.156699 0  0.175 0.156699 0  0.156699 0.175 0  0.352033 0.262216 0  1.04579 0.252253 0  1.24065 0.243419 0  0.985775 0.171509 0  1.30324 0.187395 0  0.890988 0.190768 0  1.39085 0.202767 0  0.801464 0.204685 0  1.49904 0.204666 0  0.704267 0.202289 0  1.60238 0.204951 0  0.487789 0.19191 0  1.72935 0.219637 0  1.83335 0.187427 0  2.03359 0.193642 0  0.314663 0.307348 0  0.249039 0.333583 0  2.12147 0.253405 0  2.06373 0.0836837 0  0.0734726 0.267055 0  0.143989 0.0677174 0  0.0613613 0.33781 0  0.299628 0.236829 0  0.527114 0.295386 0  0.262384 0.26549 0  0.275777 0.18341 0  1.74578 0.330928 0  1.84001 0.302448 0  1.64998 0.313838 0  0.648421 0.302367 0  1.54544 0.308508 0  0.755686 0.306156 0  1.42668 0.314809 0  0.870524 0.298596 0  1.22553 0.112785 0  1.05603 0.147372 0  0.969346 0.329867 0  1.32527 0.276284 0  2.02914 0.29511 0  1.88168 0.119486 0  1.79545 0.104842 0  1.35688 0.0892539 0  1.69041 0.105324 0  0.914199 0.09555660000000001 0  1.58234 0.102923 0  0.61843 0.10815 0  1.47999 0.101161 0  0.725217 0.104273 0  0.821727 0.102306 0  1.96725 0.105778 0  0.418624 0.241547 0  0.135226 0.239087 0  1.14921 0.314841 0  0.404508 0.333259 0  0.590155 0.206269 0  2.12554 0.150731 0  1.93166 0.22436 0  0.104689 0.190046 0  0.267856 0.07447529999999999 0  0.269368 0.221581 0  0.434446 0.114927 0  1.0089 0.07933809999999999 0  0.953023 0.246698 0  1.25853 0.33355 0  1.05268 0.340828 0  2.1369 0.067383 0  0.522398 0.112537 0  1.3421 0.348929 0  0.215186 0.289473 0  0.203197 0.335348 0  1.13984 0.190728 0  1.93813 0.330504 0  1.10505 0.0883705 0  0.341988 0.0824728 0  0.253113 0.138035 0  0.291932 0.131907 0  0.203713 0.102439 0  0.150375 0.134668 0  0.151494 0.309119 0  0.354384 0.17896 0  0.06853670000000001 0.100776 0  0.424128 0.180088 0  0.474925 0.0568661 0  2.10843 0.347669 0  2.160735 0.2804525 0  2.160735 0.2292025 0  2.2 0.25625 0  2.079485 0.04184185 0  2.027105 0.04184185 0  2.04286 0 0  0.1767565 0.0338587 0  0.1243755 0.0338587 0  0.157143 0 0  0.08068065000000001 0.373905 0  0.03068065 0.373905 0  0.05 0.41 0  0.03068065 0.322655 0  0 0.35875 0  0.281851 0.3204655 0  0.2745195 0.3717915 0  0.3073315 0.358674 0  0.06741695 0.3024325 0  0.0367363 0.2872775 0  0.3071455 0.2720885 0  0.3258305 0.2495225 0  0.333348 0.284782 0  0.2557115 0.2995365 0  0.2885235 0.286419 0  2.075305 0.2742575 0  2.031365 0.244376 0  2.07753 0.2235235 0  2.01549 0.09473085000000001 0  1.978865 0.052889 0  2.00042 0.14971 0  2.04866 0.13866285 0  0.472869 0.2684665 0  0.4532065 0.2167285 0  0.5074514999999999 0.243648 0  2.16277 0.1778655 0  2.16277 0.1266155 0  2.2 0.15375 0  1.90667 0.171923 0  1.882505 0.2058935 0  1.857515 0.1534565 0  1.885835 0.263404 0  1.83668 0.2449375 0  0.6042925 0.1572095 0  0.647211 0.204279 0  0.6613485 0.1552195 0  0.3595855 0.3203035 0  0.3782705 0.2977375 0  0.155113 0.241194 0  0.1459625 0.2320435 0  0.1658495 0.2341505 0  0.259539 0.179205 0  0.2628885 0.191705 0  0.2466505 0.1875 0  0.281006 0.2511595 0  1.0209025 0.1594405 0  1.05091 0.1998125 0  1.0157825 0.211881 0  1.264385 0.15009 0  1.23309 0.178102 0  1.271945 0.215407 0  1.291205 0.10101945 0  1.33006 0.13832445 0  0.928528 0.0477783 0  0.876147 0.0477783 0  0.890476 0 0  0.9025935 0.1431623 0  0.9499869999999999 0.1335328 0  0.9383815 0.1811385 0  0.867963 0.0989313 0  0.8563575 0.146537 0  0.8299110000000001 0.051153 0  1.411775 0.04462695 0  1.35939 0.04462695 0  1.414285 0 0  1.373865 0.14601045 0  1.347045 0.195081 0  1.418435 0.09520745 0  1.43542 0.151964 0  1.47333 0.0505805 0  0.7775300000000001 0.051153 0  0.785714 0 0  0.8115954999999999 0.1534955 0  0.8462259999999999 0.1977265 0  0.7734719999999999 0.1032895 0  0.7633405 0.154479 0  0.729275 0.0521365 0  1.52571 0.0505805 0  1.51905 0 0  1.489515 0.1529135 0  1.444945 0.2037165 0  1.531165 0.102042 0  1.54069 0.1537945 0  1.576885 0.0514615 0  1.9804 0.259735 0  1.982625 0.209001 0  1.820005 0.356224 0  1.870005 0.356224 0  1.85 0.41 0  1.78468 0.2610425 0  1.78135 0.203532 0  1.72289 0.370464 0  1.77289 0.370464 0  1.75 0.41 0  1.792895 0.316688 0  1.737565 0.2752825 0  1.62499 0.361919 0  1.67499 0.361919 0  1.65 0.41 0  1.69788 0.322383 0  1.689665 0.2667375 0  1.62618 0.2593945 0  1.665865 0.212294 0  0.6242105 0.3561835 0  0.6742105 0.3561835 0  0.6499999999999999 0.41 0  0.6192880000000001 0.254318 0  0.6763440000000001 0.252328 0  1.52272 0.359254 0  1.57272 0.359254 0  1.55 0.41 0  1.59771 0.311173 0  1.57391 0.2567295 0  1.52224 0.256587 0  1.55071 0.2048085 0  0.727843 0.358078 0  0.7778430000000001 0.358078 0  0.75 0.41 0  0.7020535 0.3042615 0  0.7299765 0.2542225 0  0.778575 0.2554205 0  0.7528655 0.203487 0  1.41334 0.3624045 0  1.46334 0.3624045 0  1.45 0.41 0  1.48606 0.3116585 0  1.46286 0.2597375 0  1.408765 0.258788 0  0.8352619999999999 0.354298 0  0.885262 0.354298 0  0.8500000000000001 0.41 0  0.813105 0.302376 0  0.8359939999999999 0.2516405 0  0.880756 0.244682 0  0.9346730000000001 0.3699335 0  0.984673 0.3699335 0  0.95 0.41 0  0.9199349999999999 0.3142315 0  0.676894 0.0521365 0  0.680952 0 0  0.714742 0.153281 0  0.6718235 0.1062115 0  0.6235005 0.054075 0  1.629265 0.0514615 0  1.62381 0 0  1.59236 0.153937 0  1.636375 0.1041235 0  1.646395 0.1551375 0  1.6833 0.052662 0  1.73568 0.052662 0  1.72857 0 0  1.70988 0.1624805 0  1.74293 0.105083 0  1.7624 0.1622395 0  1.7882 0.052421 0  1.84058 0.052421 0  1.83333 0 0  1.8144 0.1461345 0  1.838565 0.112164 0  1.883695 0.059743 0  1.124605 0.3624205 0  1.174605 0.3624205 0  1.15 0.41 0  1.314255 0.2318395 0  1.28296 0.2598515 0  1.35806 0.2395255 0  1.375975 0.2955465 0  1.92648 0.052889 0  1.938095 0 0  1.924465 0.112632 0  1.949455 0.165069 0  0.352254 0.3716295 0  0.402254 0.3716295 0  0.35 0.41 0  0.513557 0.352693 0  0.563557 0.352693 0  0.55 0.41 0  0.5877675 0.2988765 0  0.5586344999999999 0.2508275 0  0.538972 0.1990895 0  0.452254 0.3716295 0  0.45 0.41 0  0.465811 0.3143225 0  0.411566 0.287403 0  0.3853285 0.2518815 0  0.1199575 0.2145665 0  0.0890808 0.2285505 0  0.1043493 0.253071 0  0.2245195 0.3717915 0  0.25 0.41 0  0.291071 0.03723765 0  0.23869 0.03723765 0  0.261905 0 0  0.265876 0.2435355 0  0.2563345 0.2232905 0  0.2528425 0.245245 0  0.284498 0.229205 0  1.032465 0.11335505 0  0.9973375 0.12542355 0  0.9615494999999999 0.08744735000000001 0  0.9220055 0.218733 0  0.9693989999999999 0.2091035 0  0.9611845 0.2882825 0  0.9117735 0.272647 0  1.229265 0.371775 0  1.279265 0.371775 0  1.25 0.41 0  1.02634 0.375414 0  1.07634 0.375414 0  1.05 0.41 0  1.011013 0.3353475 0  2.11607 0.0336915 0  2.16845 0.0336915 0  2.14762 0 0  2.16845 0.0849415 0  2.2 0.05125 0  2.100315 0.07553335 0  0.5562765000000001 0.159403 0  0.570414 0.1103435 0  0.5050935 0.1522235 0  1.32105 0.3794645 0  1.37105 0.3794645 0  1.35 0.41 0  1.333685 0.3126065 0  1.38439 0.331869 0  0.9994065 0.2494755 0  1.007568 0.29106 0  1.300315 0.3412395 0  1.2919 0.304917 0  2.13122 0.109057 0  2.094635 0.11720735 0  0.2725725 0.2024955 0  0.259684 0.2107905 0  0.2466505 0.2125 0  0.2877025 0.2101195 0  2.123505 0.202068 0  2.079565 0.1721865 0  1.02826 0.03966905 0  0.9758784999999999 0.03966905 0  0.9952384999999999 0 0  1.049235 0.2965405 0  1.100945 0.3278345 0  1.0975 0.283547 0  0.5711200000000001 0.054075 0  0.5761905 0 0  0.523104 0.0562685 0  1.24959 0.2884845 0  1.20387 0.3241955 0  1.19493 0.27913 0  0.238785 0.2774815 0  0.2321125 0.311528 0  0.226118 0.3344655 0  0.2015985 0.3726739999999999 0  1.144525 0.2527845 0  1.190245 0.2170735 0  1.092815 0.2214905 0  0.2091915 0.3124105 0  0.220093 0.266387 0  0.243692 0.2543955 0  0.2341505 0.2341505 0  0.478422 0.113732 0  0.4611175 0.1534185 0  1.919065 0.370252 0  1.969065 0.370252 0  1.95 0.41 0  1.983635 0.312807 0  2.01457 0.352555 0  1.88907 0.316476 0  1.934895 0.277432 0  1.182685 0.1517565 0  1.097935 0.16905 0  1.128715 0.04418525 0  1.076335 0.04418525 0  1.1 0 0  1.056975 0.08385429999999999 0  1.08054 0.11787125 0  1.122445 0.13954925 0  1.16529 0.10057775 0  0.304922 0.07847404999999999 0  0.328137 0.0412364 0  0.380518 0.0412364 0  0.366667 0 0  0.388217 0.09869990000000001 0  0.426747 0.0574635 0  0.31696 0.1071899 0  0.279894 0.10319115 0  0.2725225 0.134971 0  0.2604845 0.10625515 0  0.228413 0.120237 0  0.2143565 0.129569 0  0.2390565 0.147367 0  1.30701 0.04462695 0  1.30952 0 0  1.241335 0.0563925 0  0.2357845 0.08845715 0  1.188955 0.0563925 0  1.20476 0 0  0.2066185 0.0512195 0  0.173851 0.08507819999999999 0  0.0367363 0.2360275 0  0 0.25625 0  0.264445 0.1607225 0  0.248207 0.1565175 0  0.2341505 0.1658495 0  0.2838545 0.1576585 0  0.130694 0.182523 0  0.1273445 0.195023 0  0.1533495 0.1875 0  0.127532 0.162357 0  0.153537 0.154834 0  0.0523445 0.197523 0  0.14336 0.274103 0  0.1124833 0.288087 0  0.3150805 0.181185 0  0.327006 0.2078945 0  0.323158 0.1554335 0  0.08664935 0.050388 0  0.03426835 0.050388 0  0.052381 0 0  0.03426835 0.101638 0  0 0.05125 0  0.421376 0.2108175 0  0.4559585 0.185999 0  0.429287 0.1475075 0  0.10642765 0.3234645 0  0.353208
[...]
<PointData  Vectors="u"> 
<DataArray  type="Float64"  Name="u"  NumberOfComponents="3" format="ascii">0.0000000000000000e+00 0.0000000000000000e+00 0.0000000000000000e+00  0.0000000000000000e+00 0.0000000000000000e+00 0.0000000000000000e+00  0.0000000000000000e+00 0.0000000000000000e+00 0.0000000000000000e+00  0.0000000000000000e+00 0.0000000000000000e+00 0.0000000000000000e+00  0.0000000000000000e+00 0.0000000000000000e+00 0.0000000000000000e+00  0.0000000000000000e+00 0.0000000000000000e+00 0.0000000000000000e+00  0.0000000000000000e+00 0.0000000000000000e+00 0.0000000000000000e+00  0.0000000000000000e+00 0.0000000000000000e+00 0.0000000000000000e+00  0.0000000000000000e+00 0.0000000000000000e+00 0.0000000000000000e+00  0.0000000000000000e+00 0.0000000000000000e+00 0.0000000000000000e+00  0.0000000000000000e+00 0.0000000000000000e+00 0.0000000000000000e+00  0.0000000000000000e+00 0.0000000000000000e+00 0.0000000000000000e+00  0.0000000000000000e+00 0.0000000000000000e+00 0.0000000000000000e+00  0.0000000000000000e+00 0.0000000000000000e+00 0.0000000000000000e+00  0.0000000000000000e+00 0.0000000000000000e+00 0.0000000000000000e+00  0.0000000000000000e+00 0.0000000000000000e+00 0.0000000000000000e+00  0.0000000000000000e+00 0.0000000000000000e+00 0.0000000000000000e+00  0.0000000000000000e+00 0.0000000000000000e+00 0.0000000000000000e+00  0.0000000000000000e+00 0.0000000000000000e+00 0.0000000000000000e+00  0.0000000000000000e+00 0.0000000000000000e+00 0.0000000000000000e+00  0.0000000000000000e+00 0.0000000000000000e+00 0.0000000000000000e+00  0.0000000000000000e+00 0.0000000000000000e+00 0.0000000000000000e+00  0.0000000000000000e+00 0.0000000000000000e+00 0.0000000000000000e+00  0.0000000000000000e+00 0.0000000000000000e+00 0.0000000000000000e+00  0.0000000000000000e+00 0.0000000000000000e+00 0.0000000000000000e+00  0.0000000000000000e+00 0.0000000000000000e+00 0.0000000000000000e+00  0.0000000000000000e+00 0.0000000000000000e+00 0.0000000000000000e+00  0.0000000000000000e+00 0.0000000000000000e+00 0.0000000000000000e+00  1.1250000003519762e+00 2.9490637401462042e-10 0.0000000000000000e+00  1.5000000000001505e+00 4.7852785121193968e-10 0.0000000000000000e+00  1.1249999996482434e+00 2.9447892416124793e-10 0.0000000000000000e+00  0.0000000000000000e+00 0.0000000000000000e+00 0.0000000000000000e+00  0.0000000000000000e+00 0.0000000000000000e+00 0.0000000000000000e+00  0.0000000000000000e+00 0.0000000000000000e+00 0.0000000000000000e+00  0.0000000000000000e+00 0.0000000000000000e+00 0.0000000000000000e+00  0.0000000000000000e+00 0.0000000000000000e+00 0.0000000000000000e+00  0.0000000000000000e+00 0.0000000000000000e+00 0.0000000000000000e+00  0.0000000000000000e+00 0.0000000000000000e+00 0.0000000000000000e+00  0.0000000000000000e+00 0.0000000000000000e+00 0.0000000000000000e+00  0.0000000000000000e+00 0.0000000000000000e+00 0.0000000000000000e+00  0.0000000000000000e+00 0.0000000000000000e+00 0.0000000000000000e+00  0.0000000000000000e+00 0.0000000000000000e+00 0.0000000000000000e+00  0.0000000000000000e+00 0.0000000000000000e+00 0.0000000000000000e+00  0.0000000000000000e+00 0.0000000000000000e+00 0.0000000000000000e+00  0.0000000000000000e+00 0.0000000000000000e+00 0.0000000000000000e+00  0.0000000000000000e+00 0.0000000000000000e+00 0.0000000000000000e+00  0.0000000000000000e+00 0.0000000000000000e+00 0.0000000000000000e+00  0.0000000000000000e+00 0.0000000000000000e+00 0.0000000000000000e+00  0.0000000000000000e+00 0.0000000000000000e+00 0.0000000000000000e+00  0.0000000000000000e+00 0.0000000000000000e+00 0.0000000000000000e+00  0.0000000000000000e+00 0.0000000000000000e+00 0.0000000000000000e+00  0.0000000000000000e+00 0.0000000000000000e+00 0.0000000000000000e+00  1.1250000000000000e+00 0.0000000000000000e+00 0.0000000000000000e+00  1.5000000000000002e+00 0.0000000000000000e+00 0.0000000000000000e+00  1.1250000000000002e+00 0.0000000000000000e+00 0.0000000000000000e+00  0.0000000000000000e+00 0.0000000000000000e+00 0.0000000000000000e+00  0.0000000000000000e+00 0.0000000000000000e+00 0.0000000000000000e+00  0.0000000000000000e+00 0.0000000000000000e+00 0.0000000000000000e+00  0.0000000000000000e+00 0.0000000000000000e+00 0.0000000000000000e+00  0.0000000000000000e+00 0.0000000000000000e+00 0.0000000000000000e+00  0.0000000000000000e+00 0.0000000000000000e+00 0.0000000000000000e+00  0.0000000000000000e+00 0.0000000000000000e+00 0.0000000000000000e+00  0.0000000000000000e+00 0.0000000000000000e+00 0.0000000000000000e+00  1.2572563789051878e+00 -3.2193383564112621e-01 0.0000000000000000e+00  1.4202801253341357e+00 4.8791227848131890e-05 0.0000000000000000e+00  1.4473151574078007e+00 5.2931430375454599e-06 0.0000000000000000e+00  1.4599975944630172e+00 7.6156731585902868e-05 0.0000000000000000e+00  1.4889375428427198e+00 1.9409277756104236e-06 0.0000000000000000e+00  1.4928164096185439e+00 9.6602160029489478e-05 0.0000000000000000e+00  1.4998220162613889e+00 5.1910500437456591e-08 0.0000000000000000e+00  1.5000903271036052e+00 -8.1639275256094090e-05 0.0000000000000000e+00  1.4999960173485845e+00 -2.8811179964310078e-07 0.0000000000000000e+00  1.4999128478323958e+00 -1.1513205420484156e-03 0.0000000000000000e+00  1.4999999143215370e+00 -1.6877971247287779e-07 0.0000000000000000e+00  1.4598112666176641e+00 -8.0755358438319973e-03 0.0000000000000000e+00  1.4923530656109123e+00 -4.8399206286800269e-08 0.0000000000000000e+00  1.4889776195628346e+00 -1.1543594446428829e-08 0.0000000000000000e+00  1.4953954493918187e+00 7.2378202423235569e-10 0.0000000000000000e+00  1.4240539818048379e+00 -4.2298329614558350e-01 0.0000000000000000e+00  1.7432808237602060e+00 -2.7183768888779214e-01 0.0000000000000000e+00  1.4163696358233320e+00 5.7033453408347217e-10 0.0000000000000000e+00  9.7468252401422550e-01 3.5694244438976440e-10 0.0000000000000000e+00  1.2768914756674494e+00 5.5553600237347112e-01 0.0000000000000000e+00  1.5454035880753232e+00 -2.9186564284152799e-01 0.0000000000000000e+00  1.0790722276211331e+00 2.8961444610895110e-01 0.0000000000000000e+00  8.3719111160417570e-01 -4.1153644686223306e-01 0.0000000000000000e+00  1.2182304275162068e+00 -2.3182344892036345e-02 0.0000000000000000e+00  1.1388627007136347e+00 -6.0685361282349715e-01 0.0000000000000000e+00  3.5343771744884411e-01 2.2214749571246778e-01 0.0000000000000000e+00  9.3398474625400396e-01 -1.3567277931725502e-08 0.0000000000000000e+00  1.1610548734075747e+00 -5.4861270884233189e-09 0.0000000000000000e+00  1.0771906635136033e+00 -5.5040887904710786e-08 0.0000000000000000e+00  1.1628925700477524e+00 -2.1042647942012805e-03 0.0000000000000000e+00  1.1175883323336528e+00 -1.3675927401338778e-07 0.0000000000000000e+00  1.1346734320176763e+00 -7.7254817536339789e-05 0.0000000000000000e+00  1.0696131791145482e+00 -1.3483289647985763e-07 0.0000000000000000e+00  1.1871732372864838e+00 9.6298585332735073e-05 0.0000000000000000e+00  1.1964831484865879e+00 4.1920890074366723e-06 0.0000000000000000e+00  1.3814884755939920e+00 4.0707629741169166e-05 0.0000000000000000e+00  9.4340237086914214e-01 4.0081357135272335e-05 0.0000000000000000e+00  1.3186291049298642e+00 8.3746643423860593e-07 0.0000000000000000e+00  1.2101792220230103e+00 5.2455455711122222e-10 0.0000000000000000e+00  1.2389894989455594e+00 -2.8676859502557829e-09 0.0000000000000000e+00  1.1419408024626518e+00 -1.0832539125975930e-08 0.0000000000000000e+00  1.0218142357505136e+00 1.1323286072509882e-07 0.0000000000000000e+00  1.1453787206771331e+00 -4.1428094750843326e-08 0.0000000000000000e+00  1.0725871659584911e+00 4.5939889867860085e-05 0.0000000000000000e+00  1.1280885874906976e+00 -1.0901444338634223e-07 0.0000000000000000e+00  1.1638785323252523e+00 -6.5732493907426728e-04 0.0000000000000000e+00  1.1151381039002122e+00 -1.7575108024375048e-07 0.0000000000000000e+00  1.1377628790060290e+00 -4.5933178076430623e-04 0.0000000000000000e+00  1.1237224135405759e+00 -3.4607325849258840e-05 0.0000000000000000e+00  1.1486018352537228e+00 1.4130841784824835e-10 0.0000000000000000e+00  1.3694911762952962e+00 -1.0754839602441808e-01 0.0000000000000000e+00  6.1551445884607148e-01 5.5034858639015505e-01 0.0000000000000000e+00  1.0693519724585647e+00 8.9430222401794236e-06 0.0000000000000000e+00  1.0355342289847402e+00 -1.1285793779451656e-01 0.0000000000000000e+00  1.4974071148590100e+00 -6.0145476452712681e-03 0.0000000000000000e+00  1.3948795592323746e+00 5.4404795165574331e-10 0.0000000000000000e+00  1.4866219058347248e+00 -1.2665322887546614e-09 0.0000000000000000e+00  6.4291154432959630e-01 -1.0370014624644343e-01 0.0000000000000000e+00  1.5334505924538042e+00 3.2571030758515224e-01 0.0000000000000000e+00  3.2796227092880958e-01 -2.9500661550256818e-01 0.0000000000000000e+00  1.2048326183924574e+00 7.6809713471655730e-02 0.0000000000000000e+00  9.3642607912086229e-01 2.5571494790775866e-05 0.0000000000000000e+00  1.4378964674731323e+00 9.5212940829105509e-05 0.0000000000000000e+00  9.1016793391714224e-01 1.2659436296672943e-06 0.0000000000000000e+00  8.4145883038822500e-01 1.5371002687415759e-05 0.0000000000000000e+00  8.2402955356864205e-01 1.9182477195359941e-10 0.0000000000000000e+00  1.1912880199353477e+00 1.0237911884023220e-02 0.0000000000000000e+00  7.6059920129345682e-01 9.0323990810335813e-08 0.0000000000000000e+00  1.7061998874590891e+00 -1.9228418281256640e-01 0.0000000000000000e+00  1.8807079270920650e+00 -1.0971731122873037e-02 0.0000000000000000e+00  1.4927321466226486e+00 2.1217345792153304e-05 0.0000000000000000e+00  9.3778986130023689e-01 -1.1335838847371029e-10 0.0000000000000000e+00  1.0145054831132245e+00 1.3029360952337030e-05 0.0000000000000000e+00  1.1773493569340792e+00 2.5160463081294038e-01 0.0000000000000000e+00  1.0149760377295154e+00 5.5242501264371791e-01 0.0000000000000000e+00  1.1502796902158532e+00 5.4162494713625686e-01 0.0000000000000000e+00  1.7629107927722054e+00 3.6382682043125933e-02 0.0000000000000000e+00  1.1086878949297891e+00 -5.7216632750082619e-01 0.0000000000000000e+00  1.7689225744806030e+00 4.6039651184910524e-01 0.0000000000000000e+00  1.1162227687115982e+00 1.0845591659414697e-01 0.0000000000000000e+00  1.2373750117766398e+00 -4.1495494870150174e-01 0.0000000000000000e+00  1.3666981797391322e+00 2.2645589447124078e-02 0.0000000000000000e+00  7.3343322758729812e-01 1.6531711741813705e-02 0.0000000000000000e+00  7.7348803406602473e-01 1.9084033372782688e-10 0.0000000000000000e+00  1.2967966769162889e+00 4.0532923046867042e-10 0.0000000000000000e+00  1.4790924088901425e+00 5.1294001047266882e-10 0.0000000000000000e+00  1.4062499997494038e+00 4.2823362109733679e-10 0.0000000000000000e+00  5.4983050944080059e-01 1.1082766607814089e-10 0.0000000000000000e+00  5.4983050970192449e-01 1.3008771877433186e-10 0.0000000000000000e+00  0.0000000000000000e+00 0.0000000000000000e+00 0.0000000000000000e+00  1.1453931538787065e+00 -4.8767493435385049e-02 0.0000000000000000e+00  9.2480456070307293e-01 -1.0608044474458761e-01 0.0000000000000000e+00  0.0000000000000000e+00 0.0000000000000000e+00 0.0000000000000000e+00  7.3585928737626816e-01 1.1228704717946104e-01 0.0000000000000000e+00  5.2708571145435656e-01 5.3629537106999310e-02 0.0000000000000000e+00  0.0000000000000000e+00 0.0000000000000000e+00 0.0000000000000000e+00  1.0630090556679859e+00 2.2634629755175192e-01 0.0000000000000000e+00  6.5624999999999967e-01 0.0000000000000000e+00 0.0000000000000000e+00  1.5923076300609655e+00 -4.0904732493697499e-01 0.0000000000000000e+00  1.0808790627576617e+00 -1.0673688376543590e-01 0.0000000000000000e+00  1.1327570703778125e+00 -1.6807934087693485e-01 0.0000000000000000e+00  1.3057909158452683e+00 4.8669243444897414e-01 0.0000000000000000e+00  1.2798135243614535e+00 3.5163233707946839e-01 0.0000000000000000e+00  1.2530441118523579e+00 -5.2550111454587567e-01 0.0000000000000000e+00  1.1112387731227820e+00 -3.8752455522233609e-01 0.0000000000000000e+00  1.3240039259555212e+00 -4.1184289094168264e-01 0.0000000000000000e+00  1.6727769329016684e+00 -4.9083175200721035e-01 0.0000000000000000e+00  1.4135796064469888e+00 -5.6872702471119541e-01 0.0000000000000000e+00  1.3287947176849761e+00 6.0652407278767603e-10 0.0000000000000000e+00  1.4446590342255057e+00 6.8447101491776583e-10 0.0000000000000000e+00  1.4877530020863168e+00 7.3545690169193415e-10 0.0000000000000000e+00  1.0659981413077217e+00 4.0890232539781884e-10 0.0000000000000000e+00  6.7414314268130338e-01 1.4349433837960125e-10 0.0000000000000000e+00  1.3908869454654762e+00 4.8084790904958100e-10 0.0000000000000000e+00  1.3429285860340698e+00 6.3814599537914812e-10 0.0000000000000000e+00  1.3537693028197730e+00 -6.0323445019805688e-02 0.0000000000000000e+00  1.4333178862121647e+00 -3.8670004913110317e-02 0.0000000000000000e+00  1.4362782267522280e+00 -2.9995597230236280e-02 0.0000000000000000e+00  1.4737198898835120e+00 5.0574368078337531e-10 0.0000000000000000e+00  1.2806973291602015e+00 3.9352694468758089e-10 0.0000000000000000e+00  1.4062500002509848e+00 4.2836310249408827e-10 0.0000000000000000e+00  1.4609486760109993e+00 -2.5467320550686408e-09 0.0000000000000000e+00  1.4999715047449822e+00 -4.8053334471197921e-09 0.0000000000000000e+00  1.4051731434929040e+00 -6.5423111317370911e-09 0.0000000000000000e+00  1.3782500699488114e+00 -3.5122160201573684e-09 0.0000000000000000e+00  1.4430694640296151e+00 -1.0111959730093546e-08 0.0000000000000000e+00  1.4161365697095620e+00 -2.1069255157649841e-03 0.0000000000000000e+00  1.4997634792230068e+00 -2.8041569617314440e-03 0.0000000000000000e+00  1.4110302950940621e+00 -1.5718001955233724e-03 0.0000000000000000e+00  1.2365975287206572e+00 -2.4221080546884213e-01 0.0000000000000000e+00  1.2773081208438113e+00 -2.3497176326440508e-01 0.0000000000000000e+00  4.3433202889145495e-01 3.7710064443447289e-01 0.0000000000000000e+00  3.3459165441609390e-01 3.9053778832969349e-01 0.0000000000000000e+00  0.0000000000000000e+00 0.0000000000000000e+00 0.0000000000000000e+00  1.9135621918874676e-01 2.4044871276035695e-01 0.0000000000000000e+00  1.2353038457541250e-01 9.5371364220462662e-02 0.0000000000000000e+00  0.0000000000000000e+00 0.0000000000000000e+00 0.0000000000000000e+00  9.1747452087265413e-01 -5.6101517977847715e-01 0.0000000000000000e+00  1.4259427293047171e+00 5.7529032379116645e-05 0.0000000000000000e+00  1.4990427280537075e+00 5.1435625057817440e-05 0.0000000000000000e+00  1.4983067001220305e+00 6.8125618518058564e-05 0.0000000000000000e+00  1.3923825464795638e+00 3.3083956636369137e-06 0.0000000000000000e+00  1.4741770149127829e+00 6.2251928004962549e-06 0.0000000000000000e+00  1.4961340691911356e+00 3.4955237315336621e-06 0.0000000000000000e+00  1.1140888075845508e+00 1.1306924718179858e-06 0.0000000000000000e+00  1.3413219385176847e+00 7.8000464727661192e-07 0.0000000000000000e+00  6.1779534306236894e-01 1.5623553891538883e-05 0.0000000000000000e+00  6.1782191206969661e-01 1.1904592045664606e-05 0.0000000000000000e+00  0.0000000000000000e+00 0.0000000000000000e+00 0.0000000000000000e+00  1.3636123567036820e+00 7.4360482136087971e-05 0.0000000000000000e+00  1.3177725635826945e+00 6.9701185165285993e-05 0.0000000000000000e+00  1.4797167562356408e+00 9.5686725208904205e-05 0.0000000000000000e+00  1.0985727979183704e+00 2.9355192196070924e-05 0.0000000000000000e+00  1.3781268608320314e+00 3.6932167804568633e-05 0.0000000000000000e+00  6.5530196529726581e-01 -4.9238454638272247e-06 0.0000000000000000e+00  5.8199192302922265e-01 -4.8715829197379170e-08 0.0000000000000000e+00  5.8199188430869631e-01 4.6348893572728086e-09 0.0000000000000000e+00  0.0000000000000000e+00 0.0000000000000000e+00 0.0000000000000000e+00  1.3757962923501699e+00 1.5930751602945751e-07 0.0000000000000000e+00  1.4964882686147853e+00 6.8288205013619153e-07 0.0000000000000000e+00  1.0697412242844984e+00 -1.2424234125157892e-07 0.0000000000000000e+00  1.3996017420866103e+00 -2.0798249647988232e-07 0.0000000000000000e+00  6.4888552639178265e-01 -6.5424050900145579e-08 0.0000000000000000e+00  6.5524964625052318e-01 -5.6619304733631396e-05 0.0000000000000000e+00  0.0000000000000000e+00 0.0000000000000000e+00 0.0000000000000000e+00  1.4054514350836567e+00 -7.3777416495999400e-05 0.0000000000000000e+00  1.4981733299349462e+00 5.1907240432266018e-05 0.0000000000000000e+00  1.1308388834861844e+00 -1.8857670987939795e-04 0.0000000000000000e+00  1.4090162425719039e+00 -3.4129551174639085e-04 0.0000000000000000e+00  6.6585456617839411e-01 -1.4909317980349701e-04 0.0000000000000000e+00  6.4888563095647322e-01 -5.2672325000846753e-08 0.0000000000000000e+00  0.0000000000000000e+00 0.0000000000000000e+00 0.0000000000000000e+00  1.4031644555527902e+00 -2.6031191912482090e-07 0.0000000000000000e+00  1.4999411960811742e+00 -2.4742904735037271e-07 0.0000000000000000e+00  1.1216410587468466e+00 -1.4940023928840431e-07 0.0000000000000000e+00  1.4064125939654031e+00 -2.2128042280350274e-07 0.0000000000000000e+00  6.5856962137616004e-01 -3.7981087172933296e-08 0.0000000000000000e+00  1.3930664992195336e+00 2.4842884916174027e-10 0.0000000000000000e+00  1.4994286257244722e+00 2.4732136281687914e-10 0.0000000000000000e+00  6.8374664680555020e-01 -2.1968339487406235e-09 0.0000000000000000e+00  6.8374664417920028e-01 -8.0396879078867086e-10 0.0000000000000000e+00  0.0000000000000000e+00 0.0000000000000000e+00 0.0000000000000000e+00  1.3878966714600731e+00 -2.0164687434202329e-08 0.0000000000000000e+00  1.4999230804265204e+00 -2.5423095822577272e-08 0.0000000000000000e+00  5.2278400185784057e-01 -5.1850240441119199e-09 0.0000000000000000e+00  5.2278399273967524e-01 -2.5867382649905744e-09 0.0000000000000000e+00  0.0000000000000000e+00 0.0000000000000000e+00 0.0000000000000000e+00  1.0547575566728884e+00 -9.2943343080851886e-09 0.0000000000000000e+00  1.3236896158811209e+00 -3.3229368701905066e-08 0.0000000000000000e+00  6.2110991198857923e-01 -2.1997072315676336e-08 0.0000000000000000e+00  6.2110987933885131e-01 -1.3152582717741360e-08 0.0000000000000000e+00  0.0000000000000000e+00 0.0000000000000000e+00 0.0000000000000000e+00  1.0081938979084910e+00 -2.8800097847605036e-08 0.0000000000000000e+00  1.3639553385421601e+00 -6.1503610087689054e-08 0.0000000000000000e+00  1.3943928695174801e+00 -1.1911005240540060e-07 0.0000000000000000e+00  1.4981010496308023e+00 -9.6616403447834263e-08 0.0000000000000000e+00  6.8548606965233139e-01 -1.1016880517946523e-03 0.0000000000000000e+00  6.8430945590384906e-01 -3.1163466023831457e-04 0.0000000000000000e+00  0.0000000000000000e+00 0.0000000000000000e+00 0.0000000000000000e+00  1.4141361139925648e+00 -5.1027058307077924e-03 0.0000000000000000e+00  1.4206062417570808e+00 -1.8039487629648409e-03 0.0000000000000000e+00  6.5070943174683282e-01 -5.3364829004689211e-08 0.0000000000000000e+00  6.5070935355292014e-01 -3.8142022829443956e-08 0.0000000000000000e+00  0.0000000000000000e+00 0.0000000000000000e+00 0.0000000000000000e+00  1.0976429854136684e+00 -9.1383995351299161e-08 0.0000000000000000e+00  1.4044876318508677e+00 -1.8100659205682797e-07 0.0000000000000000e+00  1.4050131824391481e+00 -2.3970283962443548e-07 0.0000000000000000e+00  1.4999986906555969e+00 -2.3767625374141554e-07 0.0000000000000000e+00  6.6338645124129292e-01 -2.8539856505405858e-05 0.0000000000000000e+00  6.6335737938505512e-01 3.2949501696469496e-05 0.0000000000000000e+00  0.0000000000000000e+00 0.0000000000000000e+00 0.0000000000000000e+00  1.1485867144661304e+00 -5.8525349302675363e-04 0.0000000000000000e+00  1.4137340630286366e+00 -5.6099062621273394e-04 0.0000000000000000e+00  1.4092857725980203e+00 -1.0727814510542896e-04 0.0000000000000000e+00  1.5000780875162931e+00 -4.3465682922563245e-04 0.0000000000000000e+00  6.1566334746226792e-01 -5.1481524393439509e-08 0.0000000000000000e+00  6.1566325199183669e-01 -5.9919436439261852e-08 0.0000000000000000e+00  0.0000000000000000e+00 0.0000000000000000e+00 0.0000000000000000e+00  1.0939550361298029e+00 -1.6711948619372093e-07 0.0000000000000000e+00  1.3930569754587332e+00 -2.4975044462744764e-07