<?xml version="1.0"?>
<VTKFile type="UnstructuredGrid"  version="0.1"  >
<UnstructuredGrid>
<Piece  NumberOfPoints="2868" NumberOfCells="5400">
<Points>
<DataArray  type="Float32"  NumberOfComponents="3"  format="ascii">0.534923 0.326073 0  0.510642 0.314196 0  0.466125 0.293082 0  0.436448 0.281205 0  0.409468 0.275927 0  0.368998 0.270648 0  0.35281 0.275927 0  0.381139 0.302319 0  0.405421 0.326073 0  0.410817 0.33531 0  0.408119 0.349826 0  0.400025 0.357744 0  0.375743 0.368301 0  0.329878 0.392055 0  0.297502 0.432963 0  0.282663 0.476511 0  0.285361 0.524018 0  0.298851 0.572845 0  0.317737 0.604516 0  0.337972 0.636187 0  0.360904 0.674457 0  0.368998 0.69953 0  0.359555 0.721964 0  0.360904 0.757594 0  0.370347 0.766831 0  0.381139 0.762872 0  0.390582 0.741758 0  0.404072 0.720644 0  0.424307 0.707448 0  0.447239 0.702169 0  0.480964 0.704808 0  0.479615 0.688973 0  0.468823 0.675776 0  0.447239 0.669178 0  0.428354 0.669178 0  0.410817 0.6639 0  0.404072 0.653343 0  0.395978 0.628269 0  0.387884 0.59132 0  0.389233 0.576804 0  0.397327 0.557009 0  0.410817 0.547772 0  0.424307 0.546452 0  0.437797 0.55305 0  0.44589 0.566247 0  0.441843 0.582082 0  0.439145 0.597918 0  0.449937 0.609795 0  0.468823 0.603196 0  0.479615 0.59 0  0.489058 0.570205 0  0.494454 0.546452 0  0.505246 0.522699 0  0.522783 0.509502 0  0.55246 0.494986 0  0.586185 0.484429 0  0.615863 0.48047 0  0.64554 0.473872 0  0.667124 0.461995 0  0.683312 0.451438 0  0.696802 0.435603 0  0.703547 0.417128 0  0.71164 0.393374 0  0.718385 0.37226 0  0.72513 0.364342 0  0.739969 0.353785 0  0.745365 0.344548 0  0.745365 0.327393 0  0.737271 0.318155 0  0.718385 0.316835 0  0.700849 0.319475 0  0.677916 0.318155 0  0.650936 0.316835 0  0.610467 0.318155 0  0.57944 0.324753 0  0.559205 0.328712 0  0.53897 0.326073 0  1 1 0  1 0 0  0 0 0  0 1 0  0.532238 0.32476 0  0.528748 0.323052 0  0.52421 0.320833 0  0.518311 0.317947 0  0.503447 0.310783 0  0.494093 0.306347 0  0.481933 0.30058 0  0.452151 0.28749 0  0.392327 0.273691 0  0.379141 0.271971 0  0.360474 0.283066 0  0.369797 0.291752 0  0.391424 0.31238 0  0.399335 0.32012 0  0.40958 0.341964 0  0.393939 0.36039 0  0.386028 0.36383 0  0.364248 0.374254 0  0.349304 0.381994 0  0.315801 0.409841 0  0.292986 0.551616 0  0.350934 0.657818 0  0.360127 0.737055 0  0.360566 0.748664 0  0.385245 0.753692 0  0.396447 0.732578 0  0.466301 0.703661 0  0.459439 0.672908 0  0.418442 0.666195 0  0.400553 0.642441 0  0.39255 0.612619 0  0.389913 0.60058 0  0.392752 0.568197 0  0.444131 0.573132 0  0.458149 0.606926 0  0.500554 0.533026 0  0.571522 0.489019 0  0.632637 0.476741 0  0.689177 0.444553 0  0.708121 0.403702 0  0.715453 0.38144 0  0.732406 0.359166 0  0.745365 0.337089 0  0.72906 0.317581 0  0.629879 0.317522 0  0.59293 0.321884 0  0.568003 0.326991 0  0.55202 0.327775 0  0.546493 0.327054 0  0.542241 0.326499 0  1 0.9 0  1 0.8 0  1 0.7 0  1 0.6 0  1 0.5 0  1 0.4 0  1 0.3 0  1 0.2 0  1 0.1 0  0.9 0 0  0.8 0 0  0.7 0 0  0.6 0 0  0.5 0 0  0.4 0 0  0.3 0 0  0.2 0 0  0.1 0 0  0.1 1 0  0.2 1 0  0.3 1 0  0.4 1 0  0.5 1 0  0.6 1 0  0.7 1 0  0.8 1 0  0.9 1 0  0 0.1 0  0 0.2 0  0 0.3 0  0 0.4 0  0 0.5 0  0 0.6 0  0 0.7 0  0 0.8 0  0 0.9 0  0.535686 0.503191 0  0.753987 0.733359 0  0.167145 0.741436 0  0.173378 0.257204 0  0.733497 0.159862 0  0.554096 0.15788 0  0.849187 0.479053 0  0.488793 0.838452 0  0.138507 0.5592 0  0.30686 0.154944 0  0.348904 0.890523 0  0.058006 0.065099 0  0.069849 0.937917 0  0.93633 0.939704 0  0.934625 0.053613 0  0.343397 0.333452 0  0.473272 0.639943 0  0.433266 0.638072 0  0.415174 0.58269 0  0.533435 0.545042 0  0.390848 0.340652 0  0.53655 0.320242 0  0.127966 0.393775 0  0.83861 0.850455 0  0.635242 0.85513 0  0.852158 0.633441 0  0.653427 0.626848 0  0.861226 0.24292 0  0.166128 0.12976 0  0.216875 0.869871 0  0.458305 0.11179 0  0.84446 0.101633 0  0.202024 0.642528 0  0.644825 0.115855 0  0.671342 0.218358 0  0.251354 0.286186 0  0.262388 0.75153 0  0.063044 0.751571 0  0.068189 0.242962 0  0.435781 0.905395 0  0.934144 0.451133 0  0.568393 0.237622 0  0.814984 0.395506 0  0.752951 0.517227 0  0.456254 0.780699 0  0.073352 0.531116 0  0.337731 0.206071 0  0.363213 0.960371 0  0.330742 0.363592 0  0.516613 0.55705 0  0.369057 0.332992 0  0.500926 0.617309 0  0.498004 0.665534 0  0.412142 0.61178 0  0.454233 0.636604 0  0.422782 0.567496 0  0.541193 0.52148 0  0.439761 0.65557 0  0.5163 0.533672 0  0.414775 0.64562 0  0.40073 0.576135 0  0.430362 0.588034 0  0.385432 0.351492 0  0.400298 0.335397 0  0.398325 0.348194 0  0.528702 0.314885 0  0.540814 0.322334 0  0.534477 0.322953 0  0.619095 0.743583 0  0.885162 0.737972 0  0.08076 0.668849 0  0.90734 0.36634 0  0.094687 0.868937 0  0.759838 0.912152 0  0.901518 0.540898 0  0.747285 0.607479 0  0.229182 0.071641 0  0.069154 0.450091 0  0.244775 0.203309 0  0.076534 0.331755 0  0.897847 0.167826 0  0.578909 0.911415 0  0.077133 0.146341 0  0.477215 0.203448 0  0.922631 0.869341 0  0.517415 0.074785 0  0.297026 0.827793 0  0.783271 0.246505 0  0.74519 0.061079 0  0.36033 0.069068 0  0.210313 0.475228 0  0.859426 0.928758 0  0.574548 0.609182 0  0.243069 0.383398 0  0.283099 0.934598 0  0.417416 0.843141 0  0.643942 0.553164 0  0.112687 0.079336 0  0.281357 0.658386 0  0.765043 0.436177 0  0.611361 0.198486 0  0.234496 0.58911 0  0.206479 0.702638 0  0.679608 0.155818 0  0.62682 0.259978 0  0.690538 0.264164 0  0.448938 0.956308 0  0.808154 0.328403 0  0.379583 0.91913 0  0.308083 0.297769 0  0.312358 0.730249 0  0.563101 0.278576 0  0.435597 0.746198 0  0.385475 0.225229 0  0.572248 0.518034 0  0.357864 0.35422 0  0.497647 0.641694 0  0.458101 0.655768 0  0.360474 0.310727 0  0.467038 0.620139 0  0.47798 0.659909 0  0.41102 0.628072 0  0.48324 0.609015 0  0.427544 0.617941 0  0.388633 0.328253 0  0.405336 0.599404 0  0.408351 0.565178 0  0.42395 0.600985 0  0.431562 0.576523 0  0.424905 0.655198 0  0.398064 0.58782 0  0.427739 0.557934 0  0.519291 0.303443 0  0.53142 0.320293 0  0.5449 0.323642 0  0.537166 0.323513 0  0.153974 0.920841 0  0.918186 0.67343 0  0.759946 0.820588 0  0.537526 0.783091 0  0.816532 0.545843 0  0.813991 0.178083 0  0.836774 0.702023 0  0.149815 0.318856 0  0.662287 0.923338 0  0.680146 0.791192 0  0.708961 0.663172 0  0.937278 0.287318 0  0.574622 0.688166 0  0.589474 0.076262 0  0.502822 0.926683 0  0.222269 0.811068 0  0.380457 0.164786 0  0.15321 0.684154 0  0.458063 0.051413 0  0.161702 0.056026 0  0.199351 0.198818 0  0.298946 0.095532 0  0.902465 0.795949 0  0.121139 0.791477 0  0.906269 0.112287 0  0.056109 0.822332 0  0.512172 0.13237 0  0.940964 0.741805 0  0.888887 0.408777 0  0.354543 0.825964 0  0.808736 0.068638 0  0.068507 0.394071 0  0.719105 0.563843 0  0.247287 0.149664 0  0.293062 0.237128 0  0.240524 0.434997 0  0.141255 0.623289 0  0.945202 0.160621 0  0.502914 0.247629 0  0.144669 0.480811 0  0.665025 0.060817 0  0.728047 0.224344 0  0.861995 0.313312 0  0.200068 0.534235 0  0.253262 0.965623 0  0.893804 0.49307 0  0.604391 0.572456 0  0.947088 0.345347 0  0.439372 0.227307 0  0.629847 0.159823 0  0.273405 0.880181 0  0.302744 0.776823 0  0.781502 0.295365 0  0.275342 0.349602 0  0.728385 0.472798 0  0.229136 0.246478 0  0.807794 0.480346 0  0.709476 0.112786 0  0.275506 0.694991 0  0.771674 0.394419 0  0.449715 0.861802 0  0.419159 0.799696 0  0.674851 0.503139 0  0.280443 0.61016 0  0.572443 0.192538 0  0.393113 0.87525 0  0.405555 0.948428 0  0.330942 0.934103 0  0.540509 0.597101 0  0.312763 0.668931 0  0.254368 0.540179 0  0.595265 0.25915 0  0.606679 0.234099 0  0.657131 0.279138 0  0.722458 0.279478 0  0.333 0.308056 0  0.351529 0.246142 0  0.455714 0.725794 0  0.585239 0.295143 0  0.340062 0.72492 0  0.545593 0.293773 0  0.555449 0.545426 0  0.414311 0.737314 0  0.590854 0.502323 0  0.350507 0.368444 0  0.484423 0.625665 0  0.483899 0.674542 0  0.378137 0.317274 0  0.446416 0.646404 0  0.373532 0.347654 0  0.446876 0.619769 0  0.466106 0.666068 0  0.437545 0.609254 0  0.434988 0.565726 0  0.41462 0.656829 0  0.418803 0.556961 0  0.398425 0.327446 0  0.517803 0.310421 0  0.549516 0.322918 0  0.57701 0.842889 0  0.829127 0.773906 0  0.643235 0.684732 0  0.134281 0.207734 0  0.865997 0.055966 0  0.680959 0.723345 0  0.165229 0.841555 0  0.54558 0.959672 0  0.783726 0.656439 0  0.913315 0.595533 0  0.699439 0.860667 0  0.785839 0.125076 0  0.551673 0.037713 0  0.920097 0.223214 0  0.206406 0.299726 0  0.087064 0.596401 0  0.935644 0.394252 0  0.964557 0.252582 0  0.230124 0.928346 0  0.120579 0.271764 0  0.857215 0.524082 0  0.767098 0.555147 0  0.936094 0.507131 0  0.804064 0.59585 0  0.700565 0.608273 0  0.429773 0.174231 0  0.117746 0.727333 0  0.538962 0.730231 0  0.862761 0.359173 0  0.821444 0.284046 0  0.193552 0.35818 0  0.234923 0.505555 0  0.193209 0.421217 0  0.220144 0.755896 0  0.594015 0.131642 0  0.283813 0.195855 0  0.517519 0.213961 0  0.553509 0.639116 0  0.280391 0.378018 0  0.852183 0.436817 0  0.746983 0.197173 0  0.821806 0.221318 0  0.449853 0.828453 0  0.883758 0.453926 0  0.183484 0.589542 0  0.348384 0.129314 0  0.255254 0.838525 0  0.504849 0.798516 0  0.320344 0.863432 0  0.611669 0.525425 0  0.265864 0.804962 0  0.72056 0.521442 0  0.613372 0.610122 0  0.481262 0.881068 0  0.655778 0.191988 0  0.701921 0.196918 0  0.565826 0.573181 0  0.46914 0.240927 0  0.343219 0.173284 0  0.888786 0.278502 0  0.244113 0.675093 0  0.739546 0.417914 0  0.784023 0.355942 0  0.326805 0.265549 0  0.248616 0.634948 0  0.789183 0.413964 0  0.764107 0.476606 0  0.32086 0.698956 0  0.334735 0.791464 0  0.53448 0.258468 0  0.395208 0.824575 0  0.309962 0.638947 0  0.263264 0.22712 0  0.756395 0.267254 0  0.639281 0.224663 0  0.358631 0.85116 0  0.309751 0.332089 0  0.663461 0.246436 0  0.424083 0.871774 0  0.269645 0.445719 0  0.272183 0.572741 0  0.624492 0.294638 0  0.717827 0.250266 0  0.408215 0.763744 0  0.485997 0.274924 0  0.288138 0.274311 0  0.410524 0.242487 0  0.741513 0.385737 0  0.691284 0.483519 0  0.515531 0.581849 0  0.463005 0.753402 0  0.681919 0.
[...]
<PointData  Vectors="u"> 
<DataArray  type="Float32"  Name="u"  NumberOfComponents="3" format="ascii">3.118134e-03 1.516297e-01 0.000000e+00  4.016400e-03 1.560258e-01 0.000000e+00  5.892911e-03 1.633700e-01 0.000000e+00  6.469340e-03 1.690205e-01 0.000000e+00  6.710895e-03 1.751192e-01 0.000000e+00  6.655986e-03 1.873217e-01 0.000000e+00  8.262010e-03 1.977601e-01 0.000000e+00  9.707791e-03 2.098571e-01 0.000000e+00  1.254336e-02 2.123603e-01 0.000000e+00  1.335269e-02 2.123669e-01 0.000000e+00  1.439179e-02 2.123573e-01 0.000000e+00  1.477911e-02 2.120866e-01 0.000000e+00  1.508053e-02 2.095457e-01 0.000000e+00  1.343751e-02 2.051392e-01 0.000000e+00  8.899331e-03 2.060677e-01 0.000000e+00  3.574281e-03 2.096819e-01 0.000000e+00  -2.363429e-03 2.147364e-01 0.000000e+00  -8.062327e-03 2.206926e-01 0.000000e+00  -1.150540e-02 2.252480e-01 0.000000e+00  -1.390938e-02 2.291003e-01 0.000000e+00  -1.555295e-02 2.322770e-01 0.000000e+00  -1.609052e-02 2.332016e-01 0.000000e+00  -1.656345e-02 2.341459e-01 0.000000e+00  -1.909776e-02 2.381963e-01 0.000000e+00  -2.137892e-02 2.423361e-01 0.000000e+00  -2.334848e-02 2.467209e-01 0.000000e+00  -2.497694e-02 2.515284e-01 0.000000e+00  -2.448473e-02 2.551089e-01 0.000000e+00  -2.332945e-02 2.592482e-01 0.000000e+00  -2.222865e-02 2.649186e-01 0.000000e+00  -2.021734e-02 2.875314e-01 0.000000e+00  -2.049897e-02 3.130682e-01 0.000000e+00  -2.038641e-02 3.381689e-01 0.000000e+00  -2.223598e-02 3.648146e-01 0.000000e+00  -2.456166e-02 3.790436e-01 0.000000e+00  -2.749548e-02 3.871897e-01 0.000000e+00  -3.021239e-02 3.906737e-01 0.000000e+00  -3.785006e-02 3.990763e-01 0.000000e+00  -4.902333e-02 4.078879e-01 0.000000e+00  -5.109748e-02 4.090365e-01 0.000000e+00  -5.219356e-02 4.101142e-01 0.000000e+00  -5.204019e-02 4.108910e-01 0.000000e+00  -5.178393e-02 4.114174e-01 0.000000e+00  -5.107682e-02 4.113766e-01 0.000000e+00  -4.898609e-02 4.106236e-01 0.000000e+00  -4.403668e-02 4.094044e-01 0.000000e+00  -3.353369e-02 4.041551e-01 0.000000e+00  -1.371115e-02 3.887277e-01 0.000000e+00  1.108443e-02 3.711112e-01 0.000000e+00  3.082446e-02 3.608154e-01 0.000000e+00  4.922328e-02 3.504686e-01 0.000000e+00  6.032168e-02 3.411817e-01 0.000000e+00  6.219786e-02 3.324048e-01 0.000000e+00  5.994773e-02 3.212508e-01 0.000000e+00  5.473838e-02 2.950748e-01 0.000000e+00  4.917132e-02 2.607955e-01 0.000000e+00  4.609636e-02 2.280182e-01 0.000000e+00  4.224816e-02 1.919029e-01 0.000000e+00  3.751649e-02 1.649736e-01 0.000000e+00  3.363467e-02 1.453448e-01 0.000000e+00  2.902308e-02 1.269025e-01 0.000000e+00  2.497463e-02 1.148880e-01 0.000000e+00  1.998382e-02 1.044881e-01 0.000000e+00  1.603951e-02 9.832588e-02 0.000000e+00  1.436268e-02 9.572809e-02 0.000000e+00  1.123806e-02 8.903747e-02 0.000000e+00  8.901282e-03 8.493954e-02 0.000000e+00  5.250799e-03 8.254828e-02 0.000000e+00  3.083788e-03 8.479968e-02 0.000000e+00  1.821487e-03 9.114503e-02 0.000000e+00  1.515314e-03 9.666417e-02 0.000000e+00  9.130371e-04 1.038016e-01 0.000000e+00  2.789709e-04 1.130711e-01 0.000000e+00  1.136224e-04 1.281133e-01 0.000000e+00  1.281514e-03 1.397141e-01 0.000000e+00  2.318863e-03 1.459486e-01 0.000000e+00  2.983395e-03 1.508580e-01 0.000000e+00  0.000000e+00 0.000000e+00 0.000000e+00  0.000000e+00 0.000000e+00 0.000000e+00  1.981429e-02 2.033742e-01 0.000000e+00  -8.733195e-03 2.287746e-01 0.000000e+00  3.151064e-03 1.520797e-01 0.000000e+00  3.243009e-03 1.527277e-01 0.000000e+00  3.403710e-03 1.535773e-01 0.000000e+00  3.653020e-03 1.546616e-01 0.000000e+00  4.369551e-03 1.572547e-01 0.000000e+00  4.815844e-03 1.587906e-01 0.000000e+00  5.339809e-03 1.607414e-01 0.000000e+00  6.229336e-03 1.658598e-01 0.000000e+00  6.751070e-03 1.795038e-01 0.000000e+00  6.708815e-03 1.834051e-01 0.000000e+00  7.941900e-03 2.041312e-01 0.000000e+00  8.624674e-03 2.073256e-01 0.000000e+00  1.089591e-02 2.113991e-01 0.000000e+00  1.186760e-02 2.121241e-01 0.000000e+00  1.385067e-02 2.123673e-01 0.000000e+00  1.489427e-02 2.116520e-01 0.000000e+00  1.501772e-02 2.108256e-01 0.000000e+00  1.498314e-02 2.080892e-01 0.000000e+00  1.456714e-02 2.064591e-01 0.000000e+00  1.164150e-02 2.050202e-01 0.000000e+00  -5.712552e-03 2.180440e-01 0.000000e+00  -1.496466e-02 2.311230e-01 0.000000e+00  -1.741802e-02 2.354290e-01 0.000000e+00  -1.824198e-02 2.366347e-01 0.000000e+00  -2.457714e-02 2.493371e-01 0.000000e+00  -2.490873e-02 2.531848e-01 0.000000e+00  -2.160660e-02 2.722334e-01 0.000000e+00  -2.067214e-02 3.515361e-01 0.000000e+00  -2.626203e-02 3.842618e-01 0.000000e+00  -3.321779e-02 3.941257e-01 0.000000e+00  -4.313178e-02 4.037400e-01 0.000000e+00  -4.686985e-02 4.065286e-01 0.000000e+00  -5.180170e-02 4.095546e-01 0.000000e+00  -4.743311e-02 4.103695e-01 0.000000e+00  -2.043945e-03 3.813166e-01 0.000000e+00  6.228307e-02 3.360597e-01 0.000000e+00  5.155825e-02 2.760408e-01 0.000000e+00  4.397277e-02 2.079991e-01 0.000000e+00  3.175148e-02 1.370225e-01 0.000000e+00  2.211171e-02 1.085846e-01 0.000000e+00  1.766149e-02 1.005747e-01 0.000000e+00  1.294045e-02 9.285282e-02 0.000000e+00  7.356338e-03 8.328666e-02 0.000000e+00  2.381106e-03 8.757066e-02 0.000000e+00  8.757572e-05 1.207187e-01 0.000000e+00  6.667350e-04 1.348931e-01 0.000000e+00  1.875609e-03 1.434719e-01 0.000000e+00  2.513401e-03 1.477182e-01 0.000000e+00  2.700427e-03 1.490986e-01 0.000000e+00  2.856044e-03 1.501114e-01 0.000000e+00  0.000000e+00 0.000000e+00 0.000000e+00  0.000000e+00 0.000000e+00 0.000000e+00  0.000000e+00 0.000000e+00 0.000000e+00  0.000000e+00 0.000000e+00 0.000000e+00  0.000000e+00 0.000000e+00 0.000000e+00  0.000000e+00 0.000000e+00 0.000000e+00  0.000000e+00 0.000000e+00 0.000000e+00  0.000000e+00 0.000000e+00 0.000000e+00  0.000000e+00 0.000000e+00 0.000000e+00  3.652949e-04 3.250373e-02 0.000000e+00  1.085272e-03 6.460904e-02 0.000000e+00  2.300869e-03 9.539074e-02 0.000000e+00  4.151476e-03 1.238626e-01 0.000000e+00  6.621319e-03 1.489935e-01 0.000000e+00  9.632986e-03 1.700319e-01 0.000000e+00  1.314350e-02 1.859956e-01 0.000000e+00  1.646661e-02 1.961704e-01 0.000000e+00  1.880348e-02 2.014815e-01 0.000000e+00  -9.677884e-03 2.307798e-01 0.000000e+00  -1.125522e-02 2.351222e-01 0.000000e+00  -1.227889e-02 2.405460e-01 0.000000e+00  -1.091950e-02 2.437767e-01 0.000000e+00  -6.148997e-03 2.378224e-01 0.000000e+00  -1.328279e-04 2.160068e-01 0.000000e+00  3.566206e-03 1.778522e-01 0.000000e+00  3.743855e-03 1.276650e-01 0.000000e+00  1.789039e-03 6.888652e-02 0.000000e+00  2.136207e-02 2.042474e-01 0.000000e+00  2.337732e-02 2.058367e-01 0.000000e+00  2.363820e-02 2.077849e-01 0.000000e+00  2.088413e-02 2.102260e-01 0.000000e+00  1.534013e-02 2.134605e-01 0.000000e+00  8.484150e-03 2.174307e-01 0.000000e+00  1.962020e-03 2.215615e-01 0.000000e+00  -3.293212e-03 2.251396e-01 0.000000e+00  -6.969573e-03 2.276641e-01 0.000000e+00  5.791015e-02 3.108531e-01 0.000000e+00  1.863734e-02 1.438630e-01 0.000000e+00  -7.143300e-03 2.257962e-01 0.000000e+00  2.036021e-02 2.050605e-01 0.000000e+00  9.958910e-04 8.716942e-02 0.000000e+00  4.337407e-03 1.399607e-01 0.000000e+00  5.497073e-03 6.003224e-02 0.000000e+00  -9.323556e-03 2.528637e-01 0.000000e+00  5.155324e-03 2.155032e-01 0.000000e+00  1.317237e-02 1.917719e-01 0.000000e+00  -1.478701e-02 2.435733e-01 0.000000e+00  1.994436e-02 2.034496e-01 0.000000e+00  -8.908624e-03 2.290391e-01 0.000000e+00  9.099728e-04 4.404539e-02 0.000000e+00  1.479231e-04 2.145039e-02 0.000000e+00  1.413802e-02 2.058992e-01 0.000000e+00  -8.033061e-03 3.484542e-01 0.000000e+00  -2.343027e-02 3.831691e-01 0.000000e+00  -4.763068e-02 4.089698e-01 0.000000e+00  5.314532e-02 3.196124e-01 0.000000e+00  1.377399e-02 2.113240e-01 0.000000e+00  3.184736e-03 1.511585e-01 0.000000e+00  1.768433e-02 2.089738e-01 0.000000e+00  5.911971e-03 1.012047e-01 0.000000e+00  7.678316e-03 2.116499e-01 0.000000e+00  1.052988e-02 7.324460e-02 0.000000e+00  3.668364e-02 2.062549e-01 0.000000e+00  -3.698854e-04 4.644853e-02 0.000000e+00  1.881193e-02 2.018737e-01 0.000000e+00  -1.182923e-02 2.332394e-01 0.000000e+00  7.302018e-03 1.615565e-01 0.000000e+00  4.089379e-04 5.114536e-02 0.000000e+00  -4.531718e-03 2.215659e-01 0.000000e+00  2.561712e-03 1.136418e-01 0.000000e+00  1.082014e-03 1.070144e-01 0.000000e+00  1.821661e-02 2.035508e-01 0.000000e+00  -1.207838e-02 2.307628e-01 0.000000e+00  -3.233364e-03 2.238699e-01 0.000000e+00  2.250246e-02 2.064098e-01 0.000000e+00  -1.174380e-02 2.477488e-01 0.000000e+00  7.603077e-05 2.113383e-02 0.000000e+00  2.991810e-03 1.389300e-01 0.000000e+00  3.623779e-03 6.885686e-02 0.000000e+00  1.963436e-02 1.133870e-01 0.000000e+00  -1.671547e-02 2.599033e-01 0.000000e+00  1.034074e-02 2.143964e-01 0.000000e+00  1.107474e-02 1.905553e-01 0.000000e+00  -1.229907e-02 2.438945e-01 0.000000e+00  1.461516e-02 2.056660e-01 0.000000e+00  5.122156e-02 3.335419e-01 0.000000e+00  1.330752e-02 2.087283e-01 0.000000e+00  1.345925e-02 3.374519e-01 0.000000e+00  -1.344879e-03 3.158722e-01 0.000000e+00  -3.774228e-02 4.020667e-01 0.000000e+00  -1.500944e-02 3.669543e-01 0.000000e+00  -5.026112e-02 4.104744e-01 0.000000e+00  5.596304e-02 3.096364e-01 0.000000e+00  -2.259636e-02 3.735855e-01 0.000000e+00  5.865231e-02 3.296065e-01 0.000000e+00  -2.872648e-02 3.898135e-01 0.000000e+00  -5.045964e-02 4.094072e-01 0.000000e+00  -4.321939e-02 4.079953e-01 0.000000e+00  1.452496e-02 2.107721e-01 0.000000e+00  1.332707e-02 2.120611e-01 0.000000e+00  1.431662e-02 2.119494e-01 0.000000e+00  3.583705e-03 1.525870e-01 0.000000e+00  2.977756e-03 1.502961e-01 0.000000e+00  3.183990e-03 1.516549e-01 0.000000e+00  1.972755e-02 2.286845e-01 0.000000e+00  5.775049e-03 6.549404e-02 0.000000e+00  4.553482e-04 2.206180e-01 0.000000e+00  -8.041677e-04 3.141634e-02 0.000000e+00  -8.265209e-03 2.281944e-01 0.000000e+00  6.063669e-03 1.484615e-01 0.000000e+00  5.041624e-03 3.937390e-02 0.000000e+00  2.502532e-02 1.324114e-01 0.000000e+00  1.594923e-02 1.961405e-01 0.000000e+00  1.613409e-02 2.113917e-01 0.000000e+00  1.732948e-02 2.004463e-01 0.000000e+00  2.137923e-02 2.081385e-01 0.000000e+00  -1.074152e-04 3.382259e-02 0.000000e+00  7.574943e-05 2.279042e-01 0.000000e+00  2.110723e-02 2.045188e-01 0.000000e+00  6.372211e-03 1.596106e-01 0.000000e+00  1.586644e-03 5.080203e-02 0.000000e+00  5.916193e-03 1.468756e-01 0.000000e+00  -1.504044e-02 2.371157e-01 0.000000e+00  7.567803e-04 7.221800e-02 0.000000e+00  1.500724e-03 8.244637e-02 0.000000e+00  1.083571e-02 1.795293e-01 0.000000e+00  8.607755e-03 2.106770e-01 0.000000e+00  3.166621e-03 9.195186e-02 0.000000e+00  3.722925e-02 2.785120e-01 0.000000e+00  1.511987e-02 2.064260e-01 0.000000e+00  -1.288282e-02 2.391087e-01 0.000000e+00  -1.593400e-02 2.505022e-01 0.000000e+00  4.186716e-02 2.073109e-01 0.000000e+00  1.924277e-02 2.025433e-01 0.000000e+00  -1.067745e-02 2.266239e-01 0.000000e+00  1.101397e-02 9.404215e-02 0.000000e+00  2.218644e-03 1.252011e-01 0.000000e+00  -3.441513e-03 2.188367e-01 0.000000e+00  -7.629415e-03 2.253487e-01 0.000000e+00  1.594094e-03 1.038464e-01 0.000000e+00  8.351305e-04 1.215884e-01 0.000000e+00  9.627525e-04 1.008458e-01 0.000000e+00  -9.449798e-03 2.446984e-01 0.000000e+00  1.826290e-03 6.685210e-02 0.000000e+00  -1.331757e-02 2.454207e-01 0.000000e+00  1.570620e-02 2.024170e-01 0.000000e+00  -1.407857e-02 2.327665e-01 0.000000e+00  2.603922e-03 1.423362e-01 0.000000e+00  -2.153106e-02 2.594747e-01 0.000000e+00  7.650805e-03 1.808929e-01 0.000000e+00  5.136491e-02 2.797460e-01 0.000000e+00  1.457696e-02 2.076617e-01 0.000000e+00  3.203751e-03 3.285163e-01 0.000000e+00  -1.822729e-02 3.566940e-01 0.000000e+00  1.156455e-02 2.066128e-01 0.000000e+00  -3.591122e-03 3.630714e-01 0.000000e+00  -1.132434e-02 3.347866e-01 0.000000e+00  -3.315663e-02 3.964457e-01 0.000000e+00  1.115616e-02 3.543893e-01 0.000000e+00  -2.878673e-02 3.957875e-01 0.000000e+00  1.265534e-02 2.110770e-01 0.000000e+00  -4.410634e-02 4.061059e-01 0.000000e+00  -5.139045e-02 4.102796e-01 0.000000e+00  -3.819348e-02 4.046780e-01 0.000000e+00  -4.747586e-02 4.097507e-01 0.000000e+00  -2.558444e-02 3.832332e-01 0.000000e+00  -4.854558e-02 4.082267e-01 0.000000e+00  -5.113988e-02 4.110950e-01 0.000000e+00  4.280575e-03 1.540991e-01 0.000000e+00  3.326531e-03 1.521826e-01 0.000000e+00  2.805852e-03 1.493723e-01 0.000000e+00  3.089471e-03 1.511478e-01 0.000000e+00  -1.035791e-02 2.314563e-01 0.000000e+00  3.709485e-03 4.161308e-02 0.000000e+00  1.150564e-02 1.459351e-01 0.000000e+00  5.300778e-04 2.569862e-01 0.000000e+00  1.254313e-02 8.216308e-02 0.000000e+00  2.486219e-04 6.158895e-02 0.000000e+00  1.142020e-02 9.003022e-02 0.000000e+00  2.016245e-02 2.068662e-01 0.000000e+00  4.501258e-03 1.965394e-01 0.000000e+00  1.606644e-02 1.913976e-01 0.000000e+00  2.849525e-02 1.667765e-01 0.000000e+00  -8.630205e-04 1.997839e-02 0.000000e+00  2.257333e-02 2.635259e-01 0.000000e+00  4.088883e-03 1.284164e-01 0.000000e+00  -6.434559e-03 2.423457e-01 0.000000e+00  -1.148512e-02 2.313121e-01 0.000000e+00  9.164024e-03 1.796934e-01 0.000000e+00  -3.920603e-03 2.225512e-01 0.000000e+00  7.685747e-03 1.598750e-01 0.000000e+00  1.782581e-02 2.000965e-01 0.000000e+00  1.902624e-02 2.025956e-01 0.000000e+00  1.334385e-02 1.898243e-01 0.000000e+00  3.461459e-03 5.961223e-02 0.000000e+00  -6.996361e-03 2.264618e-01 0.000000e+00  9.870271e-05 3.094369e-02 0.000000e+00  -5.885296e-03 2.261743e-01 0.000000e+00  5.710378e-03 1.496997e-01 0.000000e+00  1.728876e-03 3.376331e-02 0.000000e+00  5.414075e-04 3.947702e-02 0.000000e+00  -1.769031e-02 2.432099e-01 0.000000e+00  8.250030e-04 6.244550e-02 0.000000e+00  1.926538e-02 2.097252e-01 0.000000e+00  2.890945e-02 1.444530e-01 0.000000e+00  1.623410e-02 1.977569e-01 0.000000e+00  1.530880e-02 1.989939e-01 0.000000e+00  1.101016e-02 2.082494e-01 0.000000e+00  3.199090e-04 2.190237e-01 0.000000e+00  -5.826311e-05 1.811731e-02 0.000000e+00  5.683227e-03 1.553095e-01 0.000000e+00  1.117821e-02 2.116918e-01 0.000000e+00  2.659939e-03 1.067284e-01 0.000000e+00  9.254243e-04 8.928885e-02 0.000000e+00  -4.511877e-04 4.737119e-02 0.000000e+00  3.665035e-03 2.142005e-01 0.000000e+00  -1.211414e-02 2.376116e-01 0.000000e+00  3.774082e-03 4.067282e-02 0.000000e+00  4.454028e-02 2.500682e-01 0.000000e+00  -1.470317e-03 1.596906e-02 0.000000e+00  6.915169e-03 1.681475e-01 0.000000e+00  2.352908e-03 1.188915e-01 0.000000e+00  -1.358173e-02 2.372627e-01 0.000000e+00  -1.487142e-02 2.347096e-01 0.000000e+00  1.919561e-03 7.371725e-02 0.000000e+00  1.615630e-02 2.049131e-01 0.000000e+00  2.050385e-02 1.194312e-01 0.000000e+00  1.872152e-02 2.030033e-01 0.000000e+00  9.055350e-03 7.936261e-02 0.000000e+00  1.591574e-03 9.413218e-02 0.000000e+00  -1.131004e-02 2.285589e-01 0.000000e+00  8.001994e-03 8.548298e-02 0.000000e+00  -1.269015e-02 2.508912e-01 0.000000e+00  -1.862824e-02 2.531097e-01 0.000000e+00  3.546887e-02 1.677418e-01 0.000000e+00  -8.631801e-03 2.228705e-01 0.000000e+00  3.426672e-03 1.361555e-01 0.000000e+00  -1.505219e-02 2.472997e-01 0.000000e+00  -1.155840e-02 2.455061e-01 0.000000e+00  -1.325015e-02 2.423284e-01 0.000000e+00  3.469797e-02 3.119259e-01 0.000000e+00  -1.298287e-02 2.294119e-01 0.000000e+00  -9.601502e-04 2.153860e-01 0.000000e+00  1.569294e-03 1.317968e-01 0.000000e+00  1.730147e-03 1.275074e-01 0.000000e+00  5.545867e-04 1.114822e-01 0.000000e+00  1.499041e-03 9.078523e-02 0.000000e+00  1.388511e-02 2.034325e-01 0.000000e+00  9.204603e-03 1.915954e-01 0.000000e+00  -2.134692e-02 2.664727e-01 0.000000e+00  1.241161e-03 1.364053e-01 0.000000e+00  -1.545164e-02 2.340092e-01 0.000000e+00  3.305226e-03 1.478227e-01 0.000000e+00  5.075295e-02 2.998447e-01 0.000000e+00  -2.335704e-02 2.556564e-01 0.000000e+00  4.894663e-02 2.581971e-01 0.000000e+00  1.470240e-02 2.068755e-01 0.000000e+00  2.216406e-03 3.460146e-01 0.000000e+00  -1.142650e-02 3.208483e-01 0.000000e+00  1.157568e-02 2.096456e-01 0.000000e+00  -1.978676e-02 3.703930e-01 0.000000e+00  1.428930e-02 2.094081e-01 0.000000e+00  -1.571783e-02 3.823391e-01 0.000000e+00  -1.821594e-02 3.448592e-01 0.000000e+00  -2.617549e-02 3.971927e-01 0.000000e+00  -4.970407e-02 4.106928e-01 0.000000e+00  -2.752676e-02 3.872899e-01 0.000000e+00  -5.160144e-02 4.109480e-01 0.000000e+00  1.259564e-02 2.119716e-01 0.000000e+00  4.056076e-03 1.545995e-01 0.000000e+00  2.655024e-03 1.482004e-01 0.000000e+00  3.156528e-03 2.353850e-01 0.000000e+00  9.595472e-03 1.016682e-01 0.000000e+00  2.994852e-02 2.159202e-01 0.000000e+00  2.090476e-02 2.048182e-01 0.000000e+00  4.667227e-04 4.386964e-02 0.000000e+00  2.433304e-02 1.903105e-01 0.000000e+00  -9.817866e-03 2.297429e-01 0.000000e+00  -3.230715e-03 2.326381e-01 0.000000e+00  1.917074e-02 1.162762e-01 0.000000e+00  4.399981e-03 3.761332e-02 0.000000e+00  9.471329e-03 1.803133e-01 0.000000e+00  7.149693e-04 7.025790e-02 0.000000e+00  5.205493e-03 1.374092e-01 0.000000e+00  -3.882723e-04 2.630470e-02 0.000000e+00  1.932884e-02 2.052193e-01 0.000000e+00  4.945280e-03 2.172839e-01 0.000000e+00  1.900336e-04 2.008719e-02 0.000000e+00  -2.336286e-04 1.126198e-02 0.000000e+00  -1.202057e-02 2.355835e-01 0.000000e+00  2.144541e-02 2.063959e-01 0.000000e+00  7.435650e-03 5.952550e-02 0.000000e+00  2.002092e-02 1.112375e-01 0.000000e+00  3.224965e-03 2.181514e-02 0.000000e+00  1.621599e-02 9.556109e-02 0.000000e+00  3.237159e-02 1.658907e-01 0.000000e+00  7.499691e-03 1.694215e-01 0.000000e+00  -4.324379e-03 2.237859e-01 0.000000e+00  6.585154e-03 2.709952e-01 0.000000e+00  6.822905e-05 4.846136e-02 0.000000e+00  4.475016e-04 6.069997e-02 0.000000e+00  1.782375e-02 2.068574e-01 0.000000e+00  4.073274e-03 2.123746e-01 0.000000e+00  1.397209e-02 2.086601e-01 0.000000e+00  -1.012125e-02 2.286970e-01 0.000000e+00  3.496671e-03 1.284990e-01 0.000000e+00  1.503528e-02 1.969876e-01 0.000000e+00  5.217111e-03 1.508798e-01 0.000000e+00  2.615711e-02 2.901484e-01 0.000000e+00  1.450824e-02 2.055270e-01 0.000000e+00  3.023026e-03 5.609388e-02 0.000000e+00  7.761818e-04 8.321853e-02 0.000000e+00  1.060466e-04 5.943480e-02 0.000000e+00  -1.438078e-02 2.539096e-01 0.000000e+00  2.223302e-03 4.330166e-02 0.000000e+00  1.729609e-04 2.176278e-01 0.000000e+00  1.101558e-02 1.840712e-01 0.000000e+00  -1.315876e-02 2.344650e-01 0.000000e+00  -7.254795e-03 2.585663e-01 0.000000e+00  -1.531724e-02 2.406161e-01 0.000000e+00  4.653196e-02 2.380482e-01 0.000000e+00  -1.338259e-02 2.336477e-01 0.000000e+00  2.618946e-02 1.350925e-01 0.000000e+00  3.983271e-02 2.416296e-01 0.000000e+00  -9.111797e-03 2.484091e-01 0.000000e+00  1.508384e-03 1.116142e-01 0.000000e+00  1.055472e-03 9.733561e-02 0.000000e+00  4.464656e-02 2.902862e-01 0.000000e+00  6.545964e-03 1.620576e-01 0.000000e+00  1.095568e-02 1.872924e-01 0.000000e+00  -8.212312e-04 3.717033e-02 0.000000e+00  -8.786567e-03 2.255221e-01 0.000000e+00  1.440371e-02 1.019178e-01 0.000000e+00  4.624183e-03 7.665183e-02 0.000000e+00  1.319740e-02 1.987919e-01 0.000000e+00  -7.373882e-03 2.230002e-01 0.000000e+00  6.784453e-03 8.091093e-02 0.000000e+00  1.421717e-02 1.004782e-01 0.000000e+00  -1.392781e-02 2.316330e-01 0.000000e+00  -1.736978e-02 2.386074e-01 0.000000e+00  4.314923e-03 1.487232e-01 0.000000e+00  -1.796617e-02 2.488182e-01 0.000000e+00  -1.210939e-02 2.272464e-01 0.000000e+00  1.690783e-02 2.004729e-01 0.000000e+00  1.409584e-03 8.069343e-02 0.000000e+00  1.276061e-03 1.171511e-01 0.000000e+00  -1.660367e-02 2.442279e-01 0.000000e+00  1.557356e-02 2.042703e-01 0.000000e+00  8.558484e-04 1.095839e-01 0.000000e+00  -1.396303e-02 2.493734e-01 0.000000e+00  8.524743e-03 2.079932e-01 0.000000e+00  -5.408086e-03 2.190221e-01 0.000000e+00  2.556837e-04 1.226898e-01 0.000000e+00  1.082137e-03 9.244781e-02 0.000000e+00  -2.179254e-02 2.530048e-01 0.000000e+00  6.032317e-03 1.594869e-01 0.000000e+00  1.657369e-02 2.016952e-01 0.000000e+00  6.958594e-03 1.748073e-01 0.000000e+00  1.255579e-02 9.481823e-02 0.000000e+00  3.068568e-02 1.482980e-01 0.000000e+00  3.807053e-02 3.353694e-01 0.000000e+00  -1.798535e-02 2.650606e-01 0.000000e+00  9.124422e-04 1.