<?xml version="1.0"?>
<VTKFile type="UnstructuredGrid"  version="0.1"  >
<UnstructuredGrid>
<Piece  NumberOfPoints="2868" NumberOfCells="5400">
<Points>
<DataArray  type="Float32"  NumberOfComponents="3"  format="ascii">0.534923 0.326073 0  0.510642 0.314196 0  0.466125 0.293082 0  0.436448 0.281205 0  0.409468 0.275927 0  0.368998 0.270648 0  0.35281 0.275927 0  0.381139 0.302319 0  0.405421 0.326073 0  0.410817 0.33531 0  0.408119 0.349826 0  0.400025 0.357744 0  0.375743 0.368301 0  0.329878 0.392055 0  0.297502 0.432963 0  0.282663 0.476511 0  0.285361 0.524018 0  0.298851 0.572845 0  0.317737 0.604516 0  0.337972 0.636187 0  0.360904 0.674457 0  0.368998 0.69953 0  0.359555 0.721964 0  0.360904 0.757594 0  0.370347 0.766831 0  0.381139 0.762872 0  0.390582 0.741758 0  0.404072 0.720644 0  0.424307 0.707448 0  0.447239 0.702169 0  0.480964 0.704808 0  0.479615 0.688973 0  0.468823 0.675776 0  0.447239 0.669178 0  0.428354 0.669178 0  0.410817 0.6639 0  0.404072 0.653343 0  0.395978 0.628269 0  0.387884 0.59132 0  0.389233 0.576804 0  0.397327 0.557009 0  0.410817 0.547772 0  0.424307 0.546452 0  0.437797 0.55305 0  0.44589 0.566247 0  0.441843 0.582082 0  0.439145 0.597918 0  0.449937 0.609795 0  0.468823 0.603196 0  0.479615 0.59 0  0.489058 0.570205 0  0.494454 0.546452 0  0.505246 0.522699 0  0.522783 0.509502 0  0.55246 0.494986 0  0.586185 0.484429 0  0.615863 0.48047 0  0.64554 0.473872 0  0.667124 0.461995 0  0.683312 0.451438 0  0.696802 0.435603 0  0.703547 0.417128 0  0.71164 0.393374 0  0.718385 0.37226 0  0.72513 0.364342 0  0.739969 0.353785 0  0.745365 0.344548 0  0.745365 0.327393 0  0.737271 0.318155 0  0.718385 0.316835 0  0.700849 0.319475 0  0.677916 0.318155 0  0.650936 0.316835 0  0.610467 0.318155 0  0.57944 0.324753 0  0.559205 0.328712 0  0.53897 0.326073 0  1 1 0  1 0 0  0 0 0  0 1 0  0.532238 0.32476 0  0.528748 0.323052 0  0.52421 0.320833 0  0.518311 0.317947 0  0.503447 0.310783 0  0.494093 0.306347 0  0.481933 0.30058 0  0.452151 0.28749 0  0.392327 0.273691 0  0.379141 0.271971 0  0.360474 0.283066 0  0.369797 0.291752 0  0.391424 0.31238 0  0.399335 0.32012 0  0.40958 0.341964 0  0.393939 0.36039 0  0.386028 0.36383 0  0.364248 0.374254 0  0.349304 0.381994 0  0.315801 0.409841 0  0.292986 0.551616 0  0.350934 0.657818 0  0.360127 0.737055 0  0.360566 0.748664 0  0.385245 0.753692 0  0.396447 0.732578 0  0.466301 0.703661 0  0.459439 0.672908 0  0.418442 0.666195 0  0.400553 0.642441 0  0.39255 0.612619 0  0.389913 0.60058 0  0.392752 0.568197 0  0.444131 0.573132 0  0.458149 0.606926 0  0.500554 0.533026 0  0.571522 0.489019 0  0.632637 0.476741 0  0.689177 0.444553 0  0.708121 0.403702 0  0.715453 0.38144 0  0.732406 0.359166 0  0.745365 0.337089 0  0.72906 0.317581 0  0.629879 0.317522 0  0.59293 0.321884 0  0.568003 0.326991 0  0.55202 0.327775 0  0.546493 0.327054 0  0.542241 0.326499 0  1 0.9 0  1 0.8 0  1 0.7 0  1 0.6 0  1 0.5 0  1 0.4 0  1 0.3 0  1 0.2 0  1 0.1 0  0.9 0 0  0.8 0 0  0.7 0 0  0.6 0 0  0.5 0 0  0.4 0 0  0.3 0 0  0.2 0 0  0.1 0 0  0.1 1 0  0.2 1 0  0.3 1 0  0.4 1 0  0.5 1 0  0.6 1 0  0.7 1 0  0.8 1 0  0.9 1 0  0 0.1 0  0 0.2 0  0 0.3 0  0 0.4 0  0 0.5 0  0 0.6 0  0 0.7 0  0 0.8 0  0 0.9 0  0.535686 0.503191 0  0.753987 0.733359 0  0.167145 0.741436 0  0.173378 0.257204 0  0.733497 0.159862 0  0.554096 0.15788 0  0.849187 0.479053 0  0.488793 0.838452 0  0.138507 0.5592 0  0.30686 0.154944 0  0.348904 0.890523 0  0.058006 0.065099 0  0.069849 0.937917 0  0.93633 0.939704 0  0.934625 0.053613 0  0.343397 0.333452 0  0.473272 0.639943 0  0.433266 0.638072 0  0.415174 0.58269 0  0.533435 0.545042 0  0.390848 0.340652 0  0.53655 0.320242 0  0.127966 0.393775 0  0.83861 0.850455 0  0.635242 0.85513 0  0.852158 0.633441 0  0.653427 0.626848 0  0.861226 0.24292 0  0.166128 0.12976 0  0.216875 0.869871 0  0.458305 0.11179 0  0.84446 0.101633 0  0.202024 0.642528 0  0.644825 0.115855 0  0.671342 0.218358 0  0.251354 0.286186 0  0.262388 0.75153 0  0.063044 0.751571 0  0.068189 0.242962 0  0.435781 0.905395 0  0.934144 0.451133 0  0.568393 0.237622 0  0.814984 0.395506 0  0.752951 0.517227 0  0.456254 0.780699 0  0.073352 0.531116 0  0.337731 0.206071 0  0.363213 0.960371 0  0.330742 0.363592 0  0.516613 0.55705 0  0.369057 0.332992 0  0.500926 0.617309 0  0.498004 0.665534 0  0.412142 0.61178 0  0.454233 0.636604 0  0.422782 0.567496 0  0.541193 0.52148 0  0.439761 0.65557 0  0.5163 0.533672 0  0.414775 0.64562 0  0.40073 0.576135 0  0.430362 0.588034 0  0.385432 0.351492 0  0.400298 0.335397 0  0.398325 0.348194 0  0.528702 0.314885 0  0.540814 0.322334 0  0.534477 0.322953 0  0.619095 0.743583 0  0.885162 0.737972 0  0.08076 0.668849 0  0.90734 0.36634 0  0.094687 0.868937 0  0.759838 0.912152 0  0.901518 0.540898 0  0.747285 0.607479 0  0.229182 0.071641 0  0.069154 0.450091 0  0.244775 0.203309 0  0.076534 0.331755 0  0.897847 0.167826 0  0.578909 0.911415 0  0.077133 0.146341 0  0.477215 0.203448 0  0.922631 0.869341 0  0.517415 0.074785 0  0.297026 0.827793 0  0.783271 0.246505 0  0.74519 0.061079 0  0.36033 0.069068 0  0.210313 0.475228 0  0.859426 0.928758 0  0.574548 0.609182 0  0.243069 0.383398 0  0.283099 0.934598 0  0.417416 0.843141 0  0.643942 0.553164 0  0.112687 0.079336 0  0.281357 0.658386 0  0.765043 0.436177 0  0.611361 0.198486 0  0.234496 0.58911 0  0.206479 0.702638 0  0.679608 0.155818 0  0.62682 0.259978 0  0.690538 0.264164 0  0.448938 0.956308 0  0.808154 0.328403 0  0.379583 0.91913 0  0.308083 0.297769 0  0.312358 0.730249 0  0.563101 0.278576 0  0.435597 0.746198 0  0.385475 0.225229 0  0.572248 0.518034 0  0.357864 0.35422 0  0.497647 0.641694 0  0.458101 0.655768 0  0.360474 0.310727 0  0.467038 0.620139 0  0.47798 0.659909 0  0.41102 0.628072 0  0.48324 0.609015 0  0.427544 0.617941 0  0.388633 0.328253 0  0.405336 0.599404 0  0.408351 0.565178 0  0.42395 0.600985 0  0.431562 0.576523 0  0.424905 0.655198 0  0.398064 0.58782 0  0.427739 0.557934 0  0.519291 0.303443 0  0.53142 0.320293 0  0.5449 0.323642 0  0.537166 0.323513 0  0.153974 0.920841 0  0.918186 0.67343 0  0.759946 0.820588 0  0.537526 0.783091 0  0.816532 0.545843 0  0.813991 0.178083 0  0.836774 0.702023 0  0.149815 0.318856 0  0.662287 0.923338 0  0.680146 0.791192 0  0.708961 0.663172 0  0.937278 0.287318 0  0.574622 0.688166 0  0.589474 0.076262 0  0.502822 0.926683 0  0.222269 0.811068 0  0.380457 0.164786 0  0.15321 0.684154 0  0.458063 0.051413 0  0.161702 0.056026 0  0.199351 0.198818 0  0.298946 0.095532 0  0.902465 0.795949 0  0.121139 0.791477 0  0.906269 0.112287 0  0.056109 0.822332 0  0.512172 0.13237 0  0.940964 0.741805 0  0.888887 0.408777 0  0.354543 0.825964 0  0.808736 0.068638 0  0.068507 0.394071 0  0.719105 0.563843 0  0.247287 0.149664 0  0.293062 0.237128 0  0.240524 0.434997 0  0.141255 0.623289 0  0.945202 0.160621 0  0.502914 0.247629 0  0.144669 0.480811 0  0.665025 0.060817 0  0.728047 0.224344 0  0.861995 0.313312 0  0.200068 0.534235 0  0.253262 0.965623 0  0.893804 0.49307 0  0.604391 0.572456 0  0.947088 0.345347 0  0.439372 0.227307 0  0.629847 0.159823 0  0.273405 0.880181 0  0.302744 0.776823 0  0.781502 0.295365 0  0.275342 0.349602 0  0.728385 0.472798 0  0.229136 0.246478 0  0.807794 0.480346 0  0.709476 0.112786 0  0.275506 0.694991 0  0.771674 0.394419 0  0.449715 0.861802 0  0.419159 0.799696 0  0.674851 0.503139 0  0.280443 0.61016 0  0.572443 0.192538 0  0.393113 0.87525 0  0.405555 0.948428 0  0.330942 0.934103 0  0.540509 0.597101 0  0.312763 0.668931 0  0.254368 0.540179 0  0.595265 0.25915 0  0.606679 0.234099 0  0.657131 0.279138 0  0.722458 0.279478 0  0.333 0.308056 0  0.351529 0.246142 0  0.455714 0.725794 0  0.585239 0.295143 0  0.340062 0.72492 0  0.545593 0.293773 0  0.555449 0.545426 0  0.414311 0.737314 0  0.590854 0.502323 0  0.350507 0.368444 0  0.484423 0.625665 0  0.483899 0.674542 0  0.378137 0.317274 0  0.446416 0.646404 0  0.373532 0.347654 0  0.446876 0.619769 0  0.466106 0.666068 0  0.437545 0.609254 0  0.434988 0.565726 0  0.41462 0.656829 0  0.418803 0.556961 0  0.398425 0.327446 0  0.517803 0.310421 0  0.549516 0.322918 0  0.57701 0.842889 0  0.829127 0.773906 0  0.643235 0.684732 0  0.134281 0.207734 0  0.865997 0.055966 0  0.680959 0.723345 0  0.165229 0.841555 0  0.54558 0.959672 0  0.783726 0.656439 0  0.913315 0.595533 0  0.699439 0.860667 0  0.785839 0.125076 0  0.551673 0.037713 0  0.920097 0.223214 0  0.206406 0.299726 0  0.087064 0.596401 0  0.935644 0.394252 0  0.964557 0.252582 0  0.230124 0.928346 0  0.120579 0.271764 0  0.857215 0.524082 0  0.767098 0.555147 0  0.936094 0.507131 0  0.804064 0.59585 0  0.700565 0.608273 0  0.429773 0.174231 0  0.117746 0.727333 0  0.538962 0.730231 0  0.862761 0.359173 0  0.821444 0.284046 0  0.193552 0.35818 0  0.234923 0.505555 0  0.193209 0.421217 0  0.220144 0.755896 0  0.594015 0.131642 0  0.283813 0.195855 0  0.517519 0.213961 0  0.553509 0.639116 0  0.280391 0.378018 0  0.852183 0.436817 0  0.746983 0.197173 0  0.821806 0.221318 0  0.449853 0.828453 0  0.883758 0.453926 0  0.183484 0.589542 0  0.348384 0.129314 0  0.255254 0.838525 0  0.504849 0.798516 0  0.320344 0.863432 0  0.611669 0.525425 0  0.265864 0.804962 0  0.72056 0.521442 0  0.613372 0.610122 0  0.481262 0.881068 0  0.655778 0.191988 0  0.701921 0.196918 0  0.565826 0.573181 0  0.46914 0.240927 0  0.343219 0.173284 0  0.888786 0.278502 0  0.244113 0.675093 0  0.739546 0.417914 0  0.784023 0.355942 0  0.326805 0.265549 0  0.248616 0.634948 0  0.789183 0.413964 0  0.764107 0.476606 0  0.32086 0.698956 0  0.334735 0.791464 0  0.53448 0.258468 0  0.395208 0.824575 0  0.309962 0.638947 0  0.263264 0.22712 0  0.756395 0.267254 0  0.639281 0.224663 0  0.358631 0.85116 0  0.309751 0.332089 0  0.663461 0.246436 0  0.424083 0.871774 0  0.269645 0.445719 0  0.272183 0.572741 0  0.624492 0.294638 0  0.717827 0.250266 0  0.408215 0.763744 0  0.485997 0.274924 0  0.288138 0.274311 0  0.410524 0.242487 0  0.741513 0.385737 0  0.691284 0.483519 0  0.515531 0.581849 0  0.463005 0.753402 0  0.681919 0.
[...]
<PointData  Vectors="u"> 
<DataArray  type="Float32"  Name="u"  NumberOfComponents="3" format="ascii">8.397783e-03 4.102329e-01 0.000000e+00  1.088168e-02 4.220989e-01 0.000000e+00  1.607887e-02 4.418489e-01 0.000000e+00  1.771264e-02 4.570375e-01 0.000000e+00  1.842359e-02 4.734523e-01 0.000000e+00  1.837550e-02 5.063343e-01 0.000000e+00  2.280312e-02 5.345066e-01 0.000000e+00  2.686032e-02 5.672486e-01 0.000000e+00  3.460282e-02 5.740428e-01 0.000000e+00  3.680894e-02 5.740594e-01 0.000000e+00  3.963998e-02 5.740326e-01 0.000000e+00  4.069459e-02 5.732939e-01 0.000000e+00  4.151321e-02 5.663572e-01 0.000000e+00  3.704145e-02 5.542201e-01 0.000000e+00  2.472190e-02 5.564985e-01 0.000000e+00  1.028124e-02 5.660827e-01 0.000000e+00  -5.803101e-03 5.795848e-01 0.000000e+00  -2.123212e-02 5.955431e-01 0.000000e+00  -3.053925e-02 6.077676e-01 0.000000e+00  -3.702015e-02 6.181042e-01 0.000000e+00  -4.142186e-02 6.266077e-01 0.000000e+00  -4.284986e-02 6.290725e-01 0.000000e+00  -4.411521e-02 6.315757e-01 0.000000e+00  -5.093633e-02 6.423362e-01 0.000000e+00  -5.707909e-02 6.533684e-01 0.000000e+00  -6.238495e-02 6.650698e-01 0.000000e+00  -6.677141e-02 6.779253e-01 0.000000e+00  -6.545224e-02 6.875156e-01 0.000000e+00  -6.234404e-02 6.986126e-01 0.000000e+00  -5.937344e-02 7.138137e-01 0.000000e+00  -5.389327e-02 7.744221e-01 0.000000e+00  -5.451443e-02 8.429119e-01 0.000000e+00  -5.406838e-02 9.101796e-01 0.000000e+00  -5.888252e-02 9.814842e-01 0.000000e+00  -6.504490e-02 1.019508e+00 0.000000e+00  -7.285303e-02 1.041251e+00 0.000000e+00  -8.008291e-02 1.050542e+00 0.000000e+00  -1.003869e-01 1.072950e+00 0.000000e+00  -1.300863e-01 1.096435e+00 0.000000e+00  -1.355930e-01 1.099494e+00 0.000000e+00  -1.384970e-01 1.102364e+00 0.000000e+00  -1.380878e-01 1.104433e+00 0.000000e+00  -1.374086e-01 1.105838e+00 0.000000e+00  -1.355349e-01 1.105740e+00 0.000000e+00  -1.299788e-01 1.103743e+00 0.000000e+00  -1.168011e-01 1.100499e+00 0.000000e+00  -8.880745e-02 1.086511e+00 0.000000e+00  -3.588101e-02 1.045350e+00 0.000000e+00  3.050407e-02 9.983114e-01 0.000000e+00  8.343255e-02 9.707775e-01 0.000000e+00  1.327799e-01 9.430398e-01 0.000000e+00  1.625192e-01 9.180952e-01 0.000000e+00  1.674861e-01 8.944903e-01 0.000000e+00  1.613829e-01 8.644846e-01 0.000000e+00  1.472892e-01 7.940823e-01 0.000000e+00  1.322424e-01 7.019000e-01 0.000000e+00  1.239257e-01 6.137604e-01 0.000000e+00  1.135371e-01 5.166332e-01 0.000000e+00  1.007843e-01 4.442037e-01 0.000000e+00  9.032510e-02 3.914098e-01 0.000000e+00  7.789901e-02 3.418127e-01 0.000000e+00  6.698927e-02 3.095097e-01 0.000000e+00  5.354615e-02 2.815562e-01 0.000000e+00  4.292639e-02 2.649994e-01 0.000000e+00  3.841475e-02 2.580209e-01 0.000000e+00  3.000676e-02 2.400648e-01 0.000000e+00  2.371665e-02 2.290945e-01 0.000000e+00  1.389565e-02 2.227880e-01 0.000000e+00  8.069284e-03 2.289804e-01 0.000000e+00  4.692673e-03 2.462398e-01 0.000000e+00  3.884614e-03 2.612182e-01 0.000000e+00  2.272618e-03 2.805733e-01 0.000000e+00  5.785791e-04 3.057030e-01 0.000000e+00  1.693669e-04 3.464841e-01 0.000000e+00  3.369508e-03 3.779430e-01 0.000000e+00  6.202812e-03 3.948475e-01 0.000000e+00  8.028267e-03 4.081446e-01 0.000000e+00  0.000000e+00 0.000000e+00 0.000000e+00  0.000000e+00 0.000000e+00 0.000000e+00  5.381356e-02 5.492689e-01 0.000000e+00  -2.328370e-02 6.172341e-01 0.000000e+00  8.490578e-03 4.114493e-01 0.000000e+00  8.745865e-03 4.132001e-01 0.000000e+00  9.190390e-03 4.154946e-01 0.000000e+00  9.878891e-03 4.184207e-01 0.000000e+00  1.185624e-02 4.254091e-01 0.000000e+00  1.308901e-02 4.295423e-01 0.000000e+00  1.453965e-02 4.347865e-01 0.000000e+00  1.702402e-02 4.485400e-01 0.000000e+00  1.856808e-02 4.852622e-01 0.000000e+00  1.848471e-02 4.957758e-01 0.000000e+00  2.200164e-02 5.517378e-01 0.000000e+00  2.388976e-02 5.603862e-01 0.000000e+00  3.010793e-02 5.714332e-01 0.000000e+00  3.275986e-02 5.734016e-01 0.000000e+00  3.816586e-02 5.740602e-01 0.000000e+00  4.100784e-02 5.721082e-01 0.000000e+00  4.134335e-02 5.698533e-01 0.000000e+00  4.124645e-02 5.623719e-01 0.000000e+00  4.011247e-02 5.578954e-01 0.000000e+00  3.216643e-02 5.537968e-01 0.000000e+00  -1.487032e-02 5.884436e-01 0.000000e+00  -3.985146e-02 6.235224e-01 0.000000e+00  -4.640911e-02 6.349809e-01 0.000000e+00  -4.862632e-02 6.381844e-01 0.000000e+00  -6.569183e-02 6.720629e-01 0.000000e+00  -6.659065e-02 6.823602e-01 0.000000e+00  -5.767715e-02 7.334159e-01 0.000000e+00  -5.476481e-02 9.459704e-01 0.000000e+00  -6.956938e-02 1.033438e+00 0.000000e+00  -8.807304e-02 1.059749e+00 0.000000e+00  -1.144275e-01 1.085384e+00 0.000000e+00  -1.243640e-01 1.092815e+00 0.000000e+00  -1.374601e-01 1.100874e+00 0.000000e+00  -1.258455e-01 1.103068e+00 0.000000e+00  -4.663520e-03 1.025575e+00 0.000000e+00  1.677456e-01 9.043223e-01 0.000000e+00  1.386914e-01 7.428960e-01 0.000000e+00  1.181915e-01 5.599230e-01 0.000000e+00  8.524994e-02 3.690273e-01 0.000000e+00  5.927719e-02 2.925657e-01 0.000000e+00  4.729251e-02 2.710411e-01 0.000000e+00  3.458825e-02 2.503004e-01 0.000000e+00  1.955473e-02 2.246961e-01 0.000000e+00  6.189582e-03 2.365289e-01 0.000000e+00  7.929997e-05 3.264359e-01 0.000000e+00  1.688183e-03 3.648690e-01 0.000000e+00  4.992586e-03 3.881327e-01 0.000000e+00  6.737403e-03 3.996424e-01 0.000000e+00  7.251239e-03 4.033813e-01 0.000000e+00  7.678636e-03 4.061236e-01 0.000000e+00  0.000000e+00 0.000000e+00 0.000000e+00  0.000000e+00 0.000000e+00 0.000000e+00  0.000000e+00 0.000000e+00 0.000000e+00  0.000000e+00 0.000000e+00 0.000000e+00  0.000000e+00 0.000000e+00 0.000000e+00  0.000000e+00 0.000000e+00 0.000000e+00  0.000000e+00 0.000000e+00 0.000000e+00  0.000000e+00 0.000000e+00 0.000000e+00  0.000000e+00 0.000000e+00 0.000000e+00  9.791365e-04 8.775839e-02 0.000000e+00  2.917479e-03 1.744916e-01 0.000000e+00  6.214904e-03 2.577035e-01 0.000000e+00  1.126458e-02 3.346895e-01 0.000000e+00  1.801571e-02 4.026074e-01 0.000000e+00  2.622912e-02 4.594092e-01 0.000000e+00  3.576641e-02 5.024674e-01 0.000000e+00  4.476988e-02 5.298833e-01 0.000000e+00  5.108728e-02 5.441773e-01 0.000000e+00  -2.581447e-02 6.226043e-01 0.000000e+00  -3.003699e-02 6.342146e-01 0.000000e+00  -3.277046e-02 6.486690e-01 0.000000e+00  -2.911415e-02 6.571622e-01 0.000000e+00  -1.631407e-02 6.409281e-01 0.000000e+00  -1.803886e-04 5.820387e-01 0.000000e+00  9.717750e-03 4.792005e-01 0.000000e+00  1.014529e-02 3.439807e-01 0.000000e+00  4.842094e-03 1.856214e-01 0.000000e+00  5.798665e-02 5.516160e-01 0.000000e+00  6.342108e-02 5.558713e-01 0.000000e+00  6.410806e-02 5.610648e-01 0.000000e+00  5.663400e-02 5.675642e-01 0.000000e+00  4.161820e-02 5.761982e-01 0.000000e+00  2.307826e-02 5.868244e-01 0.000000e+00  5.474284e-03 5.978957e-01 0.000000e+00  -8.678150e-03 6.074895e-01 0.000000e+00  -1.855472e-02 6.142577e-01 0.000000e+00  1.558671e-01 8.365181e-01 0.000000e+00  5.023476e-02 3.875015e-01 0.000000e+00  -1.897322e-02 6.092405e-01 0.000000e+00  5.539320e-02 5.538371e-01 0.000000e+00  2.615426e-03 2.354811e-01 0.000000e+00  1.176689e-02 3.783598e-01 0.000000e+00  1.475406e-02 1.617823e-01 0.000000e+00  -2.480608e-02 6.813204e-01 0.000000e+00  1.423354e-02 5.816422e-01 0.000000e+00  3.590079e-02 5.181409e-01 0.000000e+00  -3.948184e-02 6.567284e-01 0.000000e+00  5.416835e-02 5.494752e-01 0.000000e+00  -2.375352e-02 6.179425e-01 0.000000e+00  2.460954e-03 1.186763e-01 0.000000e+00  3.954389e-04 5.790589e-02 0.000000e+00  3.888683e-02 5.564176e-01 0.000000e+00  -2.080953e-02 9.376544e-01 0.000000e+00  -6.195162e-02 1.030481e+00 0.000000e+00  -1.263692e-01 1.099329e+00 0.000000e+00  1.431849e-01 8.601424e-01 0.000000e+00  3.795411e-02 5.712176e-01 0.000000e+00  8.579698e-03 4.089500e-01 0.000000e+00  4.813476e-02 5.642118e-01 0.000000e+00  1.595402e-02 2.726403e-01 0.000000e+00  2.081948e-02 5.701687e-01 0.000000e+00  2.834950e-02 1.972976e-01 0.000000e+00  9.885339e-02 5.554028e-01 0.000000e+00  -1.028761e-03 1.253504e-01 0.000000e+00  5.113688e-02 5.452702e-01 0.000000e+00  -3.157274e-02 6.291708e-01 0.000000e+00  1.990347e-02 4.366386e-01 0.000000e+00  1.082888e-03 1.380986e-01 0.000000e+00  -1.188014e-02 5.978928e-01 0.000000e+00  6.901086e-03 3.071144e-01 0.000000e+00  2.799306e-03 2.892186e-01 0.000000e+00  4.969760e-02 5.498638e-01 0.000000e+00  -3.219841e-02 6.225284e-01 0.000000e+00  -8.494596e-03 6.040843e-01 0.000000e+00  6.109827e-02 5.574079e-01 0.000000e+00  -3.131633e-02 6.677374e-01 0.000000e+00  1.973057e-04 5.697466e-02 0.000000e+00  8.058854e-03 3.756933e-01 0.000000e+00  9.670072e-03 1.856503e-01 0.000000e+00  5.276429e-02 3.054118e-01 0.000000e+00  -4.462133e-02 7.002941e-01 0.000000e+00  2.817871e-02 5.786914e-01 0.000000e+00  3.026408e-02 5.149257e-01 0.000000e+00  -3.281640e-02 6.575552e-01 0.000000e+00  4.020437e-02 5.556963e-01 0.000000e+00  1.380856e-01 8.975868e-01 0.000000e+00  3.666678e-02 5.641474e-01 0.000000e+00  3.683356e-02 9.081849e-01 0.000000e+00  -3.028910e-03 8.503886e-01 0.000000e+00  -1.000556e-01 1.080925e+00 0.000000e+00  -3.945296e-02 9.871402e-01 0.000000e+00  -1.333649e-01 1.103336e+00 0.000000e+00  1.506672e-01 8.332839e-01 0.000000e+00  -5.979543e-02 1.004894e+00 0.000000e+00  1.579739e-01 8.869810e-01 0.000000e+00  -7.610497e-02 1.048239e+00 0.000000e+00  -1.338943e-01 1.100483e+00 0.000000e+00  -1.146233e-01 1.096743e+00 0.000000e+00  3.999983e-02 5.697095e-01 0.000000e+00  3.673812e-02 5.732267e-01 0.000000e+00  3.943447e-02 5.729206e-01 0.000000e+00  9.677338e-03 4.128065e-01 0.000000e+00  8.011914e-03 4.066181e-01 0.000000e+00  8.578556e-03 4.102976e-01 0.000000e+00  5.327549e-02 6.159486e-01 0.000000e+00  1.556065e-02 1.764229e-01 0.000000e+00  1.465640e-03 5.953627e-01 0.000000e+00  -2.180924e-03 8.473148e-02 0.000000e+00  -2.202469e-02 6.156775e-01 0.000000e+00  1.640429e-02 3.999681e-01 0.000000e+00  1.356503e-02 1.060904e-01 0.000000e+00  6.737081e-02 3.566126e-01 0.000000e+00  4.337897e-02 5.298360e-01 0.000000e+00  4.385539e-02 5.706630e-01 0.000000e+00  4.719004e-02 5.414986e-01 0.000000e+00  5.806934e-02 5.620053e-01 0.000000e+00  -3.034316e-04 9.129178e-02 0.000000e+00  3.956651e-04 6.140372e-01 0.000000e+00  5.732121e-02 5.523524e-01 0.000000e+00  1.738549e-02 4.315224e-01 0.000000e+00  4.282859e-03 1.368644e-01 0.000000e+00  1.609421e-02 3.969527e-01 0.000000e+00  -4.015860e-02 6.395073e-01 0.000000e+00  1.942820e-03 1.949688e-01 0.000000e+00  4.032676e-03 2.227117e-01 0.000000e+00  2.951488e-02 4.850811e-01 0.000000e+00  2.370422e-02 5.687262e-01 0.000000e+00  8.562127e-03 2.477394e-01 0.000000e+00  1.004710e-01 7.498135e-01 0.000000e+00  4.139675e-02 5.574577e-01 0.000000e+00  -3.439128e-02 6.448438e-01 0.000000e+00  -4.254072e-02 6.751665e-01 0.000000e+00  1.126762e-01 5.581437e-01 0.000000e+00  5.228088e-02 5.470474e-01 0.000000e+00  -2.837524e-02 6.114568e-01 0.000000e+00  2.950567e-02 2.534166e-01 0.000000e+00  5.937923e-03 3.384673e-01 0.000000e+00  -8.873402e-03 5.905708e-01 0.000000e+00  -2.024829e-02 6.080362e-01 0.000000e+00  4.239082e-03 2.806198e-01 0.000000e+00  2.126885e-03 3.287405e-01 0.000000e+00  2.425732e-03 2.725172e-01 0.000000e+00  -2.516812e-02 6.595197e-01 0.000000e+00  4.838827e-03 1.803476e-01 0.000000e+00  -3.554247e-02 6.616207e-01 0.000000e+00  4.299177e-02 5.469392e-01 0.000000e+00  -3.752178e-02 6.278820e-01 0.000000e+00  6.988795e-03 3.849866e-01 0.000000e+00  -5.753092e-02 6.991907e-01 0.000000e+00  2.098917e-02 4.889182e-01 0.000000e+00  1.382322e-01 7.529157e-01 0.000000e+00  4.012588e-02 5.612086e-01 0.000000e+00  9.268995e-03 8.842589e-01 0.000000e+00  -4.815050e-02 9.597172e-01 0.000000e+00  3.189145e-02 5.584220e-01 0.000000e+00  -8.833925e-03 9.767688e-01 0.000000e+00  -2.972126e-02 9.010731e-01 0.000000e+00  -8.787001e-02 1.065931e+00 0.000000e+00  3.069462e-02 9.535554e-01 0.000000e+00  -7.617543e-02 1.064173e+00 0.000000e+00  3.490372e-02 5.705494e-01 0.000000e+00  -1.169984e-01 1.091692e+00 0.000000e+00  -1.363645e-01 1.102807e+00 0.000000e+00  -1.012357e-01 1.087897e+00 0.000000e+00  -1.259574e-01 1.101418e+00 0.000000e+00  -6.775196e-02 1.030676e+00 0.000000e+00  -1.288096e-01 1.097339e+00 0.000000e+00  -1.357003e-01 1.104987e+00 0.000000e+00  1.159358e-02 4.168720e-01 0.000000e+00  8.971194e-03 4.117216e-01 0.000000e+00  7.540168e-03 4.041180e-01 0.000000e+00  8.318742e-03 4.089257e-01 0.000000e+00  -2.763573e-02 6.244109e-01 0.000000e+00  9.989949e-03 1.120946e-01 0.000000e+00  3.104470e-02 3.931209e-01 0.000000e+00  1.680957e-03 6.922529e-01 0.000000e+00  3.372875e-02 2.213394e-01 0.000000e+00  6.208424e-04 1.662908e-01 0.000000e+00  3.076493e-02 2.425077e-01 0.000000e+00  5.486165e-02 5.586279e-01 0.000000e+00  1.225313e-02 5.295059e-01 0.000000e+00  4.336695e-02 5.155618e-01 0.000000e+00  7.677860e-02 4.491623e-01 0.000000e+00  -2.331083e-03 5.389913e-02 0.000000e+00  6.102390e-02 7.096890e-01 0.000000e+00  1.108900e-02 3.470552e-01 0.000000e+00  -1.707527e-02 6.530541e-01 0.000000e+00  -3.063941e-02 6.240086e-01 0.000000e+00  2.503437e-02 4.856112e-01 0.000000e+00  -1.028650e-02 6.005405e-01 0.000000e+00  2.092909e-02 4.320384e-01 0.000000e+00  4.845079e-02 5.404685e-01 0.000000e+00  5.176152e-02 5.472420e-01 0.000000e+00  3.633106e-02 5.128467e-01 0.000000e+00  9.331883e-03 1.605858e-01 0.000000e+00  -1.860415e-02 6.110307e-01 0.000000e+00  2.573331e-04 8.353105e-02 0.000000e+00  -1.563532e-02 6.102635e-01 0.000000e+00  1.554068e-02 4.046485e-01 0.000000e+00  4.658260e-03 9.094964e-02 0.000000e+00  1.433293e-03 1.064434e-01 0.000000e+00  -4.724403e-02 6.557556e-01 0.000000e+00  2.206881e-03 1.686407e-01 0.000000e+00  5.233511e-02 5.662230e-01 0.000000e+00  7.778172e-02 3.890119e-01 0.000000e+00  4.418474e-02 5.342336e-01 0.000000e+00  4.177244e-02 5.376626e-01 0.000000e+00  3.027666e-02 5.622711e-01 0.000000e+00  1.159161e-03 5.910801e-01 0.000000e+00  -1.609294e-04 4.889478e-02 0.000000e+00  1.546552e-02 4.200093e-01 0.000000e+00  3.054499e-02 5.714434e-01 0.000000e+00  7.185205e-03 2.883853e-01 0.000000e+00  2.368826e-03 2.411976e-01 0.000000e+00  -1.248189e-03 1.277953e-01 0.000000e+00  1.030003e-02 5.781453e-01 0.000000e+00  -3.233454e-02 6.408551e-01 0.000000e+00  1.014370e-02 1.096139e-01 0.000000e+00  1.199823e-01 6.732065e-01 0.000000e+00  -3.966135e-03 4.307577e-02 0.000000e+00  1.892360e-02 4.545823e-01 0.000000e+00  6.315254e-03 3.213506e-01 0.000000e+00  -3.626325e-02 6.399137e-01 0.000000e+00  -3.968360e-02 6.330697e-01 0.000000e+00  5.058312e-03 1.989479e-01 0.000000e+00  4.424720e-02 5.535090e-01 0.000000e+00  5.504019e-02 3.217032e-01 0.000000e+00  5.099430e-02 5.483692e-01 0.000000e+00  2.430112e-02 2.138455e-01 0.000000e+00  4.257280e-03 2.543228e-01 0.000000e+00  -3.009952e-02 6.166351e-01 0.000000e+00  2.138928e-02 2.304403e-01 0.000000e+00  -3.384601e-02 6.761316e-01 0.000000e+00  -4.975504e-02 6.821482e-01 0.000000e+00  9.533120e-02 4.516630e-01 0.000000e+00  -2.283355e-02 6.013920e-01 0.000000e+00  9.259844e-03 3.681143e-01 0.000000e+00  -4.018466e-02 6.666342e-01 0.000000e+00  -3.082553e-02 6.617920e-01 0.000000e+00  -3.536915e-02 6.534136e-01 0.000000e+00  9.374864e-02 8.396133e-01 0.000000e+00  -3.455448e-02 6.189315e-01 0.000000e+00  -2.102740e-03 5.813225e-01 0.000000e+00  4.151279e-03 3.564038e-01 0.000000e+00  4.591708e-03 3.447525e-01 0.000000e+00  1.330008e-03 3.013634e-01 0.000000e+00  3.855344e-03 2.452330e-01 0.000000e+00  3.812713e-02 5.497496e-01 0.000000e+00  2.525257e-02 5.177952e-01 0.000000e+00  -5.701025e-02 7.179456e-01 0.000000e+00  3.254752e-03 3.689392e-01 0.000000e+00  -4.116847e-02 6.312037e-01 0.000000e+00  8.909419e-03 3.998723e-01 0.000000e+00  1.367106e-01 8.070106e-01 0.000000e+00  -6.243169e-02 6.889767e-01 0.000000e+00  1.316561e-01 6.949438e-01 0.000000e+00  4.047217e-02 5.590397e-01 0.000000e+00  6.692916e-03 9.311277e-01 0.000000e+00  -3.008744e-02 8.637464e-01 0.000000e+00  3.195216e-02 5.666615e-01 0.000000e+00  -5.226336e-02 9.963427e-01 0.000000e+00  3.935158e-02 5.659887e-01 0.000000e+00  -4.127128e-02 1.028261e+00 0.000000e+00  -4.818658e-02 9.280626e-01 0.000000e+00  -6.917929e-02 1.067933e+00 0.000000e+00  -1.318862e-01 1.103924e+00 0.000000e+00  -7.292961e-02 1.041513e+00 0.000000e+00  -1.369244e-01 1.104589e+00 0.000000e+00  3.474424e-02 5.729847e-01 0.000000e+00  1.098086e-02 4.182386e-01 0.000000e+00  7.125720e-03 4.009430e-01 0.000000e+00  8.694492e-03 6.341207e-01 0.000000e+00  2.586613e-02 2.738679e-01 0.000000e+00  8.077042e-02 5.815058e-01 0.000000e+00  5.681439e-02 5.531729e-01 0.000000e+00  1.248021e-03 1.184510e-01 0.000000e+00  6.561726e-02 5.125832e-01 0.000000e+00  -2.618123e-02 6.198190e-01 0.000000e+00  -8.484288e-03 6.268667e-01 0.000000e+00  5.163118e-02 3.131828e-01 0.000000e+00  1.184358e-02 1.013302e-01 0.000000e+00  2.560524e-02 4.857479e-01 0.000000e+00  1.888345e-03 1.897480e-01 0.000000e+00  1.414612e-02 3.713371e-01 0.000000e+00  -1.055594e-03 7.098233e-02 0.000000e+00  5.266813e-02 5.542718e-01 0.000000e+00  1.360210e-02 5.864229e-01 0.000000e+00  5.084056e-04 5.417164e-02 0.000000e+00  -6.312586e-04 3.038474e-02 0.000000e+00  -3.208656e-02 6.354401e-01 0.000000e+00  5.828728e-02 5.573797e-01 0.000000e+00  1.998938e-02 1.603852e-01 0.000000e+00  5.384843e-02 2.996122e-01 0.000000e+00  8.683169e-03 5.879147e-02 0.000000e+00  4.364140e-02 2.573999e-01 0.000000e+00  8.717125e-02 4.467335e-01 0.000000e+00  2.049372e-02 4.579336e-01 0.000000e+00  -1.140488e-02 6.038556e-01 0.000000e+00  1.800490e-02 7.298774e-01 0.000000e+00  1.470036e-04 1.307029e-01 0.000000e+00  1.143651e-03 1.637963e-01 0.000000e+00  4.861001e-02 5.585968e-01 0.000000e+00  1.148166e-02 5.732617e-01 0.000000e+00  3.819394e-02 5.633617e-01 0.000000e+00  -2.696229e-02 6.170058e-01 0.000000e+00  9.459491e-03 3.473265e-01 0.000000e+00  4.097963e-02 5.322144e-01 0.000000e+00  1.418619e-02 4.079713e-01 0.000000e+00  7.076859e-02 7.812027e-01 0.000000e+00  3.982256e-02 5.551222e-01 0.000000e+00  8.089647e-03 1.512086e-01 0.000000e+00  1.997939e-03 2.247760e-01 0.000000e+00  2.302788e-04 1.604398e-01 0.000000e+00  -3.837280e-02 6.842276e-01 0.000000e+00  5.958876e-03 1.167221e-01 0.000000e+00  8.190691e-04 5.873315e-01 0.000000e+00  3.003569e-02 4.973743e-01 0.000000e+00  -3.512687e-02 6.324371e-01 0.000000e+00  -1.923440e-02 6.965853e-01 0.000000e+00  -4.090329e-02 6.488514e-01 0.000000e+00  1.251888e-01 6.407932e-01 0.000000e+00  -3.571631e-02 6.302456e-01 0.000000e+00  7.039842e-02 3.638220e-01 0.000000e+00  1.073787e-01 6.505817e-01 0.000000e+00  -2.425011e-02 6.693872e-01 0.000000e+00  3.985511e-03 3.016666e-01 0.000000e+00  2.742052e-03 2.629968e-01 0.000000e+00  1.203610e-01 7.813779e-01 0.000000e+00  1.787136e-02 4.381972e-01 0.000000e+00  2.990784e-02 5.060967e-01 0.000000e+00  -2.231864e-03 1.002888e-01 0.000000e+00  -2.332482e-02 6.084995e-01 0.000000e+00  3.858341e-02 2.746304e-01 0.000000e+00  1.232487e-02 2.067345e-01 0.000000e+00  3.611737e-02 5.372082e-01 0.000000e+00  -1.949353e-02 6.017385e-01 0.000000e+00  1.814433e-02 2.180958e-01 0.000000e+00  3.815428e-02 2.706967e-01 0.000000e+00  -3.709380e-02 6.248673e-01 0.000000e+00  -4.637308e-02 6.434683e-01 0.000000e+00  1.168987e-02 4.022359e-01 0.000000e+00  -4.798154e-02 6.707002e-01 0.000000e+00  -3.219562e-02 6.131318e-01 0.000000e+00  4.607989e-02 5.416000e-01 0.000000e+00  3.658489e-03 2.178790e-01 0.000000e+00  3.338165e-03 3.166862e-01 0.000000e+00  -4.434057e-02 6.584719e-01 0.000000e+00  4.271271e-02 5.519054e-01 0.000000e+00  2.164929e-03 2.961953e-01 0.000000e+00  -3.726233e-02 6.721243e-01 0.000000e+00  2.362738e-02 5.615961e-01 0.000000e+00  -1.411228e-02 5.910678e-01 0.000000e+00  5.419974e-04 3.317582e-01 0.000000e+00  2.761613e-03 2.497475e-01 0.000000e+00  -5.823640e-02 6.818749e-01 0.000000e+00  1.643214e-02 4.313458e-01 0.000000e+00  4.526428e-02 5.449480e-01 0.000000e+00  1.909352e-02 4.725494e-01 0.000000e+00  3.358719e-02 2.555704e-01 0.000000e+00  8.243193e-02 3.993579e-01 0.000000e+00  1.028401e-01 9.025369e-01 0.000000e+00  -4.801107e-02 7.141249e-01 0.000000e+00  2.277328e-03 2.