<?xml version="1.0"?>
<VTKFile type="UnstructuredGrid"  version="0.1"  >
<UnstructuredGrid>
<Piece  NumberOfPoints="2868" NumberOfCells="5400">
<Points>
<DataArray  type="Float32"  NumberOfComponents="3"  format="ascii">0.534923 0.326073 0  0.510642 0.314196 0  0.466125 0.293082 0  0.436448 0.281205 0  0.409468 0.275927 0  0.368998 0.270648 0  0.35281 0.275927 0  0.381139 0.302319 0  0.405421 0.326073 0  0.410817 0.33531 0  0.408119 0.349826 0  0.400025 0.357744 0  0.375743 0.368301 0  0.329878 0.392055 0  0.297502 0.432963 0  0.282663 0.476511 0  0.285361 0.524018 0  0.298851 0.572845 0  0.317737 0.604516 0  0.337972 0.636187 0  0.360904 0.674457 0  0.368998 0.69953 0  0.359555 0.721964 0  0.360904 0.757594 0  0.370347 0.766831 0  0.381139 0.762872 0  0.390582 0.741758 0  0.404072 0.720644 0  0.424307 0.707448 0  0.447239 0.702169 0  0.480964 0.704808 0  0.479615 0.688973 0  0.468823 0.675776 0  0.447239 0.669178 0  0.428354 0.669178 0  0.410817 0.6639 0  0.404072 0.653343 0  0.395978 0.628269 0  0.387884 0.59132 0  0.389233 0.576804 0  0.397327 0.557009 0  0.410817 0.547772 0  0.424307 0.546452 0  0.437797 0.55305 0  0.44589 0.566247 0  0.441843 0.582082 0  0.439145 0.597918 0  0.449937 0.609795 0  0.468823 0.603196 0  0.479615 0.59 0  0.489058 0.570205 0  0.494454 0.546452 0  0.505246 0.522699 0  0.522783 0.509502 0  0.55246 0.494986 0  0.586185 0.484429 0  0.615863 0.48047 0  0.64554 0.473872 0  0.667124 0.461995 0  0.683312 0.451438 0  0.696802 0.435603 0  0.703547 0.417128 0  0.71164 0.393374 0  0.718385 0.37226 0  0.72513 0.364342 0  0.739969 0.353785 0  0.745365 0.344548 0  0.745365 0.327393 0  0.737271 0.318155 0  0.718385 0.316835 0  0.700849 0.319475 0  0.677916 0.318155 0  0.650936 0.316835 0  0.610467 0.318155 0  0.57944 0.324753 0  0.559205 0.328712 0  0.53897 0.326073 0  1 1 0  1 0 0  0 0 0  0 1 0  0.532238 0.32476 0  0.528748 0.323052 0  0.52421 0.320833 0  0.518311 0.317947 0  0.503447 0.310783 0  0.494093 0.306347 0  0.481933 0.30058 0  0.452151 0.28749 0  0.392327 0.273691 0  0.379141 0.271971 0  0.360474 0.283066 0  0.369797 0.291752 0  0.391424 0.31238 0  0.399335 0.32012 0  0.40958 0.341964 0  0.393939 0.36039 0  0.386028 0.36383 0  0.364248 0.374254 0  0.349304 0.381994 0  0.315801 0.409841 0  0.292986 0.551616 0  0.350934 0.657818 0  0.360127 0.737055 0  0.360566 0.748664 0  0.385245 0.753692 0  0.396447 0.732578 0  0.466301 0.703661 0  0.459439 0.672908 0  0.418442 0.666195 0  0.400553 0.642441 0  0.39255 0.612619 0  0.389913 0.60058 0  0.392752 0.568197 0  0.444131 0.573132 0  0.458149 0.606926 0  0.500554 0.533026 0  0.571522 0.489019 0  0.632637 0.476741 0  0.689177 0.444553 0  0.708121 0.403702 0  0.715453 0.38144 0  0.732406 0.359166 0  0.745365 0.337089 0  0.72906 0.317581 0  0.629879 0.317522 0  0.59293 0.321884 0  0.568003 0.326991 0  0.55202 0.327775 0  0.546493 0.327054 0  0.542241 0.326499 0  1 0.9 0  1 0.8 0  1 0.7 0  1 0.6 0  1 0.5 0  1 0.4 0  1 0.3 0  1 0.2 0  1 0.1 0  0.9 0 0  0.8 0 0  0.7 0 0  0.6 0 0  0.5 0 0  0.4 0 0  0.3 0 0  0.2 0 0  0.1 0 0  0.1 1 0  0.2 1 0  0.3 1 0  0.4 1 0  0.5 1 0  0.6 1 0  0.7 1 0  0.8 1 0  0.9 1 0  0 0.1 0  0 0.2 0  0 0.3 0  0 0.4 0  0 0.5 0  0 0.6 0  0 0.7 0  0 0.8 0  0 0.9 0  0.535686 0.503191 0  0.753987 0.733359 0  0.167145 0.741436 0  0.173378 0.257204 0  0.733497 0.159862 0  0.554096 0.15788 0  0.849187 0.479053 0  0.488793 0.838452 0  0.138507 0.5592 0  0.30686 0.154944 0  0.348904 0.890523 0  0.058006 0.065099 0  0.069849 0.937917 0  0.93633 0.939704 0  0.934625 0.053613 0  0.343397 0.333452 0  0.473272 0.639943 0  0.433266 0.638072 0  0.415174 0.58269 0  0.533435 0.545042 0  0.390848 0.340652 0  0.53655 0.320242 0  0.127966 0.393775 0  0.83861 0.850455 0  0.635242 0.85513 0  0.852158 0.633441 0  0.653427 0.626848 0  0.861226 0.24292 0  0.166128 0.12976 0  0.216875 0.869871 0  0.458305 0.11179 0  0.84446 0.101633 0  0.202024 0.642528 0  0.644825 0.115855 0  0.671342 0.218358 0  0.251354 0.286186 0  0.262388 0.75153 0  0.063044 0.751571 0  0.068189 0.242962 0  0.435781 0.905395 0  0.934144 0.451133 0  0.568393 0.237622 0  0.814984 0.395506 0  0.752951 0.517227 0  0.456254 0.780699 0  0.073352 0.531116 0  0.337731 0.206071 0  0.363213 0.960371 0  0.330742 0.363592 0  0.516613 0.55705 0  0.369057 0.332992 0  0.500926 0.617309 0  0.498004 0.665534 0  0.412142 0.61178 0  0.454233 0.636604 0  0.422782 0.567496 0  0.541193 0.52148 0  0.439761 0.65557 0  0.5163 0.533672 0  0.414775 0.64562 0  0.40073 0.576135 0  0.430362 0.588034 0  0.385432 0.351492 0  0.400298 0.335397 0  0.398325 0.348194 0  0.528702 0.314885 0  0.540814 0.322334 0  0.534477 0.322953 0  0.619095 0.743583 0  0.885162 0.737972 0  0.08076 0.668849 0  0.90734 0.36634 0  0.094687 0.868937 0  0.759838 0.912152 0  0.901518 0.540898 0  0.747285 0.607479 0  0.229182 0.071641 0  0.069154 0.450091 0  0.244775 0.203309 0  0.076534 0.331755 0  0.897847 0.167826 0  0.578909 0.911415 0  0.077133 0.146341 0  0.477215 0.203448 0  0.922631 0.869341 0  0.517415 0.074785 0  0.297026 0.827793 0  0.783271 0.246505 0  0.74519 0.061079 0  0.36033 0.069068 0  0.210313 0.475228 0  0.859426 0.928758 0  0.574548 0.609182 0  0.243069 0.383398 0  0.283099 0.934598 0  0.417416 0.843141 0  0.643942 0.553164 0  0.112687 0.079336 0  0.281357 0.658386 0  0.765043 0.436177 0  0.611361 0.198486 0  0.234496 0.58911 0  0.206479 0.702638 0  0.679608 0.155818 0  0.62682 0.259978 0  0.690538 0.264164 0  0.448938 0.956308 0  0.808154 0.328403 0  0.379583 0.91913 0  0.308083 0.297769 0  0.312358 0.730249 0  0.563101 0.278576 0  0.435597 0.746198 0  0.385475 0.225229 0  0.572248 0.518034 0  0.357864 0.35422 0  0.497647 0.641694 0  0.458101 0.655768 0  0.360474 0.310727 0  0.467038 0.620139 0  0.47798 0.659909 0  0.41102 0.628072 0  0.48324 0.609015 0  0.427544 0.617941 0  0.388633 0.328253 0  0.405336 0.599404 0  0.408351 0.565178 0  0.42395 0.600985 0  0.431562 0.576523 0  0.424905 0.655198 0  0.398064 0.58782 0  0.427739 0.557934 0  0.519291 0.303443 0  0.53142 0.320293 0  0.5449 0.323642 0  0.537166 0.323513 0  0.153974 0.920841 0  0.918186 0.67343 0  0.759946 0.820588 0  0.537526 0.783091 0  0.816532 0.545843 0  0.813991 0.178083 0  0.836774 0.702023 0  0.149815 0.318856 0  0.662287 0.923338 0  0.680146 0.791192 0  0.708961 0.663172 0  0.937278 0.287318 0  0.574622 0.688166 0  0.589474 0.076262 0  0.502822 0.926683 0  0.222269 0.811068 0  0.380457 0.164786 0  0.15321 0.684154 0  0.458063 0.051413 0  0.161702 0.056026 0  0.199351 0.198818 0  0.298946 0.095532 0  0.902465 0.795949 0  0.121139 0.791477 0  0.906269 0.112287 0  0.056109 0.822332 0  0.512172 0.13237 0  0.940964 0.741805 0  0.888887 0.408777 0  0.354543 0.825964 0  0.808736 0.068638 0  0.068507 0.394071 0  0.719105 0.563843 0  0.247287 0.149664 0  0.293062 0.237128 0  0.240524 0.434997 0  0.141255 0.623289 0  0.945202 0.160621 0  0.502914 0.247629 0  0.144669 0.480811 0  0.665025 0.060817 0  0.728047 0.224344 0  0.861995 0.313312 0  0.200068 0.534235 0  0.253262 0.965623 0  0.893804 0.49307 0  0.604391 0.572456 0  0.947088 0.345347 0  0.439372 0.227307 0  0.629847 0.159823 0  0.273405 0.880181 0  0.302744 0.776823 0  0.781502 0.295365 0  0.275342 0.349602 0  0.728385 0.472798 0  0.229136 0.246478 0  0.807794 0.480346 0  0.709476 0.112786 0  0.275506 0.694991 0  0.771674 0.394419 0  0.449715 0.861802 0  0.419159 0.799696 0  0.674851 0.503139 0  0.280443 0.61016 0  0.572443 0.192538 0  0.393113 0.87525 0  0.405555 0.948428 0  0.330942 0.934103 0  0.540509 0.597101 0  0.312763 0.668931 0  0.254368 0.540179 0  0.595265 0.25915 0  0.606679 0.234099 0  0.657131 0.279138 0  0.722458 0.279478 0  0.333 0.308056 0  0.351529 0.246142 0  0.455714 0.725794 0  0.585239 0.295143 0  0.340062 0.72492 0  0.545593 0.293773 0  0.555449 0.545426 0  0.414311 0.737314 0  0.590854 0.502323 0  0.350507 0.368444 0  0.484423 0.625665 0  0.483899 0.674542 0  0.378137 0.317274 0  0.446416 0.646404 0  0.373532 0.347654 0  0.446876 0.619769 0  0.466106 0.666068 0  0.437545 0.609254 0  0.434988 0.565726 0  0.41462 0.656829 0  0.418803 0.556961 0  0.398425 0.327446 0  0.517803 0.310421 0  0.549516 0.322918 0  0.57701 0.842889 0  0.829127 0.773906 0  0.643235 0.684732 0  0.134281 0.207734 0  0.865997 0.055966 0  0.680959 0.723345 0  0.165229 0.841555 0  0.54558 0.959672 0  0.783726 0.656439 0  0.913315 0.595533 0  0.699439 0.860667 0  0.785839 0.125076 0  0.551673 0.037713 0  0.920097 0.223214 0  0.206406 0.299726 0  0.087064 0.596401 0  0.935644 0.394252 0  0.964557 0.252582 0  0.230124 0.928346 0  0.120579 0.271764 0  0.857215 0.524082 0  0.767098 0.555147 0  0.936094 0.507131 0  0.804064 0.59585 0  0.700565 0.608273 0  0.429773 0.174231 0  0.117746 0.727333 0  0.538962 0.730231 0  0.862761 0.359173 0  0.821444 0.284046 0  0.193552 0.35818 0  0.234923 0.505555 0  0.193209 0.421217 0  0.220144 0.755896 0  0.594015 0.131642 0  0.283813 0.195855 0  0.517519 0.213961 0  0.553509 0.639116 0  0.280391 0.378018 0  0.852183 0.436817 0  0.746983 0.197173 0  0.821806 0.221318 0  0.449853 0.828453 0  0.883758 0.453926 0  0.183484 0.589542 0  0.348384 0.129314 0  0.255254 0.838525 0  0.504849 0.798516 0  0.320344 0.863432 0  0.611669 0.525425 0  0.265864 0.804962 0  0.72056 0.521442 0  0.613372 0.610122 0  0.481262 0.881068 0  0.655778 0.191988 0  0.701921 0.196918 0  0.565826 0.573181 0  0.46914 0.240927 0  0.343219 0.173284 0  0.888786 0.278502 0  0.244113 0.675093 0  0.739546 0.417914 0  0.784023 0.355942 0  0.326805 0.265549 0  0.248616 0.634948 0  0.789183 0.413964 0  0.764107 0.476606 0  0.32086 0.698956 0  0.334735 0.791464 0  0.53448 0.258468 0  0.395208 0.824575 0  0.309962 0.638947 0  0.263264 0.22712 0  0.756395 0.267254 0  0.639281 0.224663 0  0.358631 0.85116 0  0.309751 0.332089 0  0.663461 0.246436 0  0.424083 0.871774 0  0.269645 0.445719 0  0.272183 0.572741 0  0.624492 0.294638 0  0.717827 0.250266 0  0.408215 0.763744 0  0.485997 0.274924 0  0.288138 0.274311 0  0.410524 0.242487 0  0.741513 0.385737 0  0.691284 0.483519 0  0.515531 0.581849 0  0.463005 0.753402 0  0.681919 0.
[...]
<PointData  Vectors="u"> 
<DataArray  type="Float32"  Name="u"  NumberOfComponents="3" format="ascii">3.515590e-02 1.761908e+00 0.000000e+00  4.706491e-02 1.812228e+00 0.000000e+00  7.216721e-02 1.894270e+00 0.000000e+00  8.089719e-02 1.957201e+00 0.000000e+00  8.527255e-02 2.025710e+00 0.000000e+00  8.737516e-02 2.163862e+00 0.000000e+00  1.082853e-01 2.283248e+00 0.000000e+00  1.290648e-01 2.424176e+00 0.000000e+00  1.639520e-01 2.453857e+00 0.000000e+00  1.738066e-01 2.453903e+00 0.000000e+00  1.864211e-01 2.453764e+00 0.000000e+00  1.911040e-01 2.450443e+00 0.000000e+00  1.946873e-01 2.419212e+00 0.000000e+00  1.748520e-01 2.362090e+00 0.000000e+00  1.209591e-01 2.366457e+00 0.000000e+00  5.813757e-02 2.403115e+00 0.000000e+00  -1.142075e-02 2.457102e+00 0.000000e+00  -7.794508e-02 2.522024e+00 0.000000e+00  -1.177330e-01 2.572204e+00 0.000000e+00  -1.450301e-01 2.614606e+00 0.000000e+00  -1.628819e-01 2.649018e+00 0.000000e+00  -1.683958e-01 2.658748e+00 0.000000e+00  -1.734970e-01 2.668293e+00 0.000000e+00  -2.019652e-01 2.709904e+00 0.000000e+00  -2.276788e-01 2.753378e+00 0.000000e+00  -2.499467e-01 2.799878e+00 0.000000e+00  -2.683539e-01 2.851575e+00 0.000000e+00  -2.629908e-01 2.890514e+00 0.000000e+00  -2.500540e-01 2.935813e+00 0.000000e+00  -2.374815e-01 2.997845e+00 0.000000e+00  -2.130956e-01 3.244938e+00 0.000000e+00  -2.125962e-01 3.525239e+00 0.000000e+00  -2.075067e-01 3.799380e+00 0.000000e+00  -2.238986e-01 4.087637e+00 0.000000e+00  -2.474239e-01 4.240131e+00 0.000000e+00  -2.780178e-01 4.326761e+00 0.000000e+00  -3.063250e-01 4.363608e+00 0.000000e+00  -3.853576e-01 4.452432e+00 0.000000e+00  -5.008786e-01 4.545215e+00 0.000000e+00  -5.221472e-01 4.557250e+00 0.000000e+00  -5.332262e-01 4.568530e+00 0.000000e+00  -5.316009e-01 4.576662e+00 0.000000e+00  -5.290035e-01 4.582267e+00 0.000000e+00  -5.218493e-01 4.582120e+00 0.000000e+00  -5.002661e-01 4.574478e+00 0.000000e+00  -4.485129e-01 4.561777e+00 0.000000e+00  -3.378952e-01 4.506572e+00 0.000000e+00  -1.266333e-01 4.342944e+00 0.000000e+00  1.424432e-01 4.155124e+00 0.000000e+00  3.587414e-01 4.044183e+00 0.000000e+00  5.607155e-01 3.930883e+00 0.000000e+00  6.817758e-01 3.827896e+00 0.000000e+00  7.005750e-01 3.729763e+00 0.000000e+00  6.740077e-01 3.604862e+00 0.000000e+00  6.135083e-01 3.312167e+00 0.000000e+00  5.492720e-01 2.929288e+00 0.000000e+00  5.136667e-01 2.563273e+00 0.000000e+00  4.696483e-01 2.159665e+00 0.000000e+00  4.160712e-01 1.858515e+00 0.000000e+00  3.721963e-01 1.639007e+00 0.000000e+00  3.200491e-01 1.432912e+00 0.000000e+00  2.742334e-01 1.298854e+00 0.000000e+00  2.179046e-01 1.183047e+00 0.000000e+00  1.735050e-01 1.114600e+00 0.000000e+00  1.547123e-01 1.085782e+00 0.000000e+00  1.196671e-01 1.012023e+00 0.000000e+00  9.340063e-02 9.675988e-01 0.000000e+00  5.250773e-02 9.442740e-01 0.000000e+00  2.832705e-02 9.732036e-01 0.000000e+00  1.471130e-02 1.049452e+00 0.000000e+00  1.170615e-02 1.114851e+00 0.000000e+00  5.182368e-03 1.199012e+00 0.000000e+00  -1.603274e-03 1.308123e+00 0.000000e+00  -2.486024e-03 1.485225e+00 0.000000e+00  1.218945e-02 1.622021e+00 0.000000e+00  2.497619e-02 1.695484e+00 0.000000e+00  3.345366e-02 1.752930e+00 0.000000e+00  0.000000e+00 0.000000e+00 0.000000e+00  0.000000e+00 0.000000e+00 0.000000e+00  2.357997e-01 2.336776e+00 0.000000e+00  -9.222757e-02 2.611118e+00 0.000000e+00  3.564010e-02 1.767108e+00 0.000000e+00  3.688762e-02 1.774576e+00 0.000000e+00  3.902236e-02 1.784333e+00 0.000000e+00  4.230313e-02 1.796727e+00 0.000000e+00  5.169257e-02 1.826106e+00 0.000000e+00  5.757267e-02 1.843340e+00 0.000000e+00  6.456743e-02 1.865085e+00 0.000000e+00  7.703373e-02 1.921954e+00 0.000000e+00  8.671608e-02 2.075210e+00 0.000000e+00  8.706927e-02 2.119397e+00 0.000000e+00  1.063304e-01 2.357110e+00 0.000000e+00  1.153808e-01 2.394393e+00 0.000000e+00  1.437773e-01 2.442438e+00 0.000000e+00  1.556976e-01 2.451057e+00 0.000000e+00  1.798566e-01 2.453898e+00 0.000000e+00  1.924875e-01 2.445126e+00 0.000000e+00  1.939617e-01 2.434994e+00 0.000000e+00  1.934628e-01 2.401057e+00 0.000000e+00  1.883913e-01 2.380296e+00 0.000000e+00  1.535363e-01 2.357924e+00 0.000000e+00  -5.051401e-02 2.493065e+00 0.000000e+00  -1.566337e-01 2.636621e+00 0.000000e+00  -1.829251e-01 2.681383e+00 0.000000e+00  -1.921671e-01 2.693774e+00 0.000000e+00  -2.637569e-01 2.827933e+00 0.000000e+00  -2.676714e-01 2.869541e+00 0.000000e+00  -2.298998e-01 3.077672e+00 0.000000e+00  -2.087758e-01 3.944516e+00 0.000000e+00  -2.651308e-01 4.295689e+00 0.000000e+00  -3.374389e-01 4.400111e+00 0.000000e+00  -4.400032e-01 4.501641e+00 0.000000e+00  -4.786612e-01 4.530970e+00 0.000000e+00  -5.293016e-01 4.562682e+00 0.000000e+00  -4.840660e-01 4.571850e+00 0.000000e+00  -5.303004e-04 4.264290e+00 0.000000e+00  7.023612e-01 3.770693e+00 0.000000e+00  5.767439e-01 3.099544e+00 0.000000e+00  4.893382e-01 2.339585e+00 0.000000e+00  3.508816e-01 1.545973e+00 0.000000e+00  2.419065e-01 1.228627e+00 0.000000e+00  1.917386e-01 1.139564e+00 0.000000e+00  1.387757e-01 1.053977e+00 0.000000e+00  7.594445e-02 9.504048e-01 0.000000e+00  2.074664e-02 1.006814e+00 0.000000e+00  -3.322853e-03 1.398145e+00 0.000000e+00  4.552189e-03 1.565161e+00 0.000000e+00  1.952416e-02 1.666320e+00 0.000000e+00  2.746334e-02 1.716245e+00 0.000000e+00  2.985147e-02 1.732400e+00 0.000000e+00  3.183448e-02 1.744228e+00 0.000000e+00  0.000000e+00 0.000000e+00 0.000000e+00  0.000000e+00 0.000000e+00 0.000000e+00  0.000000e+00 0.000000e+00 0.000000e+00  0.000000e+00 0.000000e+00 0.000000e+00  0.000000e+00 0.000000e+00 0.000000e+00  0.000000e+00 0.000000e+00 0.000000e+00  0.000000e+00 0.000000e+00 0.000000e+00  0.000000e+00 0.000000e+00 0.000000e+00  0.000000e+00 0.000000e+00 0.000000e+00  3.991504e-03 3.727883e-01 0.000000e+00  1.209172e-02 7.423687e-01 0.000000e+00  2.644679e-02 1.098190e+00 0.000000e+00  4.911703e-02 1.427792e+00 0.000000e+00  7.969713e-02 1.717771e+00 0.000000e+00  1.164722e-01 1.958976e+00 0.000000e+00  1.583355e-01 2.140828e+00 0.000000e+00  1.972864e-01 2.255957e+00 0.000000e+00  2.242920e-01 2.315593e+00 0.000000e+00  -1.025121e-01 2.632907e+00 0.000000e+00  -1.195961e-01 2.679554e+00 0.000000e+00  -1.304847e-01 2.736516e+00 0.000000e+00  -1.152589e-01 2.767210e+00 0.000000e+00  -6.272850e-02 2.694539e+00 0.000000e+00  3.272405e-03 2.444642e+00 0.000000e+00  4.326904e-02 2.011961e+00 0.000000e+00  4.390312e-02 1.444250e+00 0.000000e+00  2.081994e-02 7.796352e-01 0.000000e+00  2.533799e-01 2.346495e+00 0.000000e+00  2.762880e-01 2.363733e+00 0.000000e+00  2.787773e-01 2.384235e+00 0.000000e+00  2.461188e-01 2.409711e+00 0.000000e+00  1.812215e-01 2.444076e+00 0.000000e+00  1.017861e-01 2.487041e+00 0.000000e+00  2.714063e-02 2.532164e+00 0.000000e+00  -3.211666e-02 2.571354e+00 0.000000e+00  -7.290801e-02 2.598986e+00 0.000000e+00  6.502556e-01 3.488561e+00 0.000000e+00  2.112648e-01 1.624233e+00 0.000000e+00  -7.351837e-02 2.578290e+00 0.000000e+00  2.449405e-01 2.356516e+00 0.000000e+00  9.401930e-03 1.003204e+00 0.000000e+00  5.125439e-02 1.618029e+00 0.000000e+00  6.058209e-02 6.801775e-01 0.000000e+00  -9.697810e-02 2.861070e+00 0.000000e+00  6.754884e-02 2.465542e+00 0.000000e+00  1.602120e-01 2.209182e+00 0.000000e+00  -1.575830e-01 2.768101e+00 0.000000e+00  2.373902e-01 2.337718e+00 0.000000e+00  -9.413427e-02 2.613991e+00 0.000000e+00  1.053822e-02 4.982651e-01 0.000000e+00  1.587466e-03 2.457699e-01 0.000000e+00  1.816422e-01 2.374813e+00 0.000000e+00  -6.850133e-02 3.909330e+00 0.000000e+00  -2.334306e-01 4.282983e+00 0.000000e+00  -4.860697e-01 4.556873e+00 0.000000e+00  6.006101e-01 3.588295e+00 0.000000e+00  1.788474e-01 2.441225e+00 0.000000e+00  3.597702e-02 1.756212e+00 0.000000e+00  2.132845e-01 2.396133e+00 0.000000e+00  6.753420e-02 1.143674e+00 0.000000e+00  9.037115e-02 2.391771e+00 0.000000e+00  1.184700e-01 8.272516e-01 0.000000e+00  4.151437e-01 2.324540e+00 0.000000e+00  -5.065466e-03 5.311146e-01 0.000000e+00  2.251226e-01 2.321017e+00 0.000000e+00  -1.257992e-01 2.659067e+00 0.000000e+00  8.886851e-02 1.864874e+00 0.000000e+00  4.105943e-03 5.868171e-01 0.000000e+00  -4.242109e-02 2.531808e+00 0.000000e+00  2.893906e-02 1.311144e+00 0.000000e+00  9.050403e-03 1.235076e+00 0.000000e+00  2.228899e-01 2.342029e+00 0.000000e+00  -1.273751e-01 2.631894e+00 0.000000e+00  -3.082825e-02 2.557426e+00 0.000000e+00  2.673301e-01 2.370011e+00 0.000000e+00  -1.240648e-01 2.808665e+00 0.000000e+00  6.401986e-04 2.400304e-01 0.000000e+00  3.376809e-02 1.609398e+00 0.000000e+00  3.840485e-02 7.825641e-01 0.000000e+00  2.182156e-01 1.280308e+00 0.000000e+00  -1.778648e-01 2.940926e+00 0.000000e+00  1.254989e-01 2.453885e+00 0.000000e+00  1.368956e-01 2.197131e+00 0.000000e+00  -1.304693e-01 2.770651e+00 0.000000e+00  1.879070e-01 2.369620e+00 0.000000e+00  5.811472e-01 3.743532e+00 0.000000e+00  1.727332e-01 2.409764e+00 0.000000e+00  1.674251e-01 3.789536e+00 0.000000e+00  7.119108e-04 3.554829e+00 0.000000e+00  -3.830474e-01 4.484048e+00 0.000000e+00  -1.432866e-01 4.108911e+00 0.000000e+00  -5.133675e-01 4.572637e+00 0.000000e+00  6.294908e-01 3.475994e+00 0.000000e+00  -2.264222e-01 4.180891e+00 0.000000e+00  6.615774e-01 3.698934e+00 0.000000e+00  -2.902075e-01 4.354271e+00 0.000000e+00  -5.154659e-01 4.561186e+00 0.000000e+00  -4.399183e-01 4.546940e+00 0.000000e+00  1.879542e-01 2.434403e+00 0.000000e+00  1.734677e-01 2.450203e+00 0.000000e+00  1.854880e-01 2.448795e+00 0.000000e+00  4.111291e-02 1.772584e+00 0.000000e+00  3.335806e-02 1.746228e+00 0.000000e+00  3.599237e-02 1.762104e+00 0.000000e+00  2.263748e-01 2.581301e+00 0.000000e+00  6.532114e-02 7.397351e-01 0.000000e+00  1.149411e-02 2.521742e+00 0.000000e+00  -9.496198e-03 3.578195e-01 0.000000e+00  -8.698994e-02 2.604740e+00 0.000000e+00  7.037009e-02 1.678283e+00 0.000000e+00  5.649314e-02 4.455619e-01 0.000000e+00  2.814102e-01 1.493850e+00 0.000000e+00  1.915198e-01 2.256534e+00 0.000000e+00  1.929106e-01 2.421738e+00 0.000000e+00  2.096534e-01 2.306906e+00 0.000000e+00  2.545296e-01 2.387899e+00 0.000000e+00  -1.599034e-03 3.871579e-01 0.000000e+00  6.010608e-03 2.577697e+00 0.000000e+00  2.510778e-01 2.349711e+00 0.000000e+00  7.800280e-02 1.846334e+00 0.000000e+00  1.815609e-02 5.742452e-01 0.000000e+00  7.112815e-02 1.695216e+00 0.000000e+00  -1.603031e-01 2.699955e+00 0.000000e+00  5.925750e-03 8.277893e-01 0.000000e+00  1.667535e-02 9.485719e-01 0.000000e+00  1.313147e-01 2.068675e+00 0.000000e+00  1.112624e-01 2.413342e+00 0.000000e+00  3.662412e-02 1.039788e+00 0.000000e+00  4.252528e-01 3.134467e+00 0.000000e+00  1.889981e-01 2.370347e+00 0.000000e+00  -1.371476e-01 2.721575e+00 0.000000e+00  -1.696879e-01 2.840126e+00 0.000000e+00  4.698162e-01 2.333727e+00 0.000000e+00  2.295344e-01 2.327855e+00 0.000000e+00  -1.101986e-01 2.587275e+00 0.000000e+00  1.198841e-01 1.064989e+00 0.000000e+00  2.399023e-02 1.447620e+00 0.000000e+00  -2.817871e-02 2.501798e+00 0.000000e+00  -7.806579e-02 2.573262e+00 0.000000e+00  1.649049e-02 1.197507e+00 0.000000e+00  6.052137e-03 1.406936e+00 0.000000e+00  6.272282e-03 1.163053e+00 0.000000e+00  -9.900125e-02 2.774166e+00 0.000000e+00  1.841435e-02 7.625948e-01 0.000000e+00  -1.414927e-01 2.786637e+00 0.000000e+00  1.960893e-01 2.332782e+00 0.000000e+00  -1.481906e-01 2.653321e+00 0.000000e+00  2.869418e-02 1.651106e+00 0.000000e+00  -2.305800e-01 2.937495e+00 0.000000e+00  9.680810e-02 2.088557e+00 0.000000e+00  5.762362e-01 3.142430e+00 0.000000e+00  1.881525e-01 2.395907e+00 0.000000e+00  5.327336e-02 3.692518e+00 0.000000e+00  -1.804080e-01 3.998823e+00 0.000000e+00  1.508473e-01 2.385130e+00 0.000000e+00  -1.807400e-02 4.067413e+00 0.000000e+00  -1.068903e-01 3.761308e+00 0.000000e+00  -3.357269e-01 4.424519e+00 0.000000e+00  1.431698e-01 3.973999e+00 0.000000e+00  -2.884361e-01 4.417476e+00 0.000000e+00  1.651959e-01 2.438358e+00 0.000000e+00  -4.495552e-01 4.526630e+00 0.000000e+00  -5.249841e-01 4.570342e+00 0.000000e+00  -3.871974e-01 4.511862e+00 0.000000e+00  -4.844628e-01 4.565307e+00 0.000000e+00  -2.576888e-01 4.284305e+00 0.000000e+00  -4.957556e-01 4.548818e+00 0.000000e+00  -5.224426e-01 4.579088e+00 0.000000e+00  5.005647e-02 1.789451e+00 0.000000e+00  3.784052e-02 1.768136e+00 0.000000e+00  3.117797e-02 1.735478e+00 0.000000e+00  3.478188e-02 1.756214e+00 0.000000e+00  -1.099033e-01 2.640116e+00 0.000000e+00  4.181737e-02 4.700340e-01 0.000000e+00  1.313116e-01 1.648630e+00 0.000000e+00  1.278152e-02 2.902885e+00 0.000000e+00  1.399827e-01 9.285588e-01 0.000000e+00  1.468667e-03 7.064468e-01 0.000000e+00  1.289953e-01 1.016649e+00 0.000000e+00  2.427174e-01 2.374897e+00 0.000000e+00  5.427500e-02 2.222176e+00 0.000000e+00  1.837959e-01 2.161557e+00 0.000000e+00  3.222525e-01 1.881408e+00 0.000000e+00  -9.924778e-03 2.279992e-01 0.000000e+00  2.607005e-01 2.971811e+00 0.000000e+00  4.821826e-02 1.481946e+00 0.000000e+00  -6.573465e-02 2.744047e+00 0.000000e+00  -1.217435e-01 2.638112e+00 0.000000e+00  1.130519e-01 2.072935e+00 0.000000e+00  -3.696195e-02 2.542760e+00 0.000000e+00  9.298175e-02 1.843946e+00 0.000000e+00  2.131723e-01 2.300555e+00 0.000000e+00  2.288372e-01 2.329913e+00 0.000000e+00  1.612826e-01 2.185875e+00 0.000000e+00  3.929233e-02 6.734709e-01 0.000000e+00  -7.259103e-02 2.585730e+00 0.000000e+00  8.804598e-04 3.544740e-01 0.000000e+00  -6.070155e-02 2.582679e+00 0.000000e+00  6.882748e-02 1.729540e+00 0.000000e+00  1.955199e-02 3.813552e-01 0.000000e+00  5.411937e-03 4.488447e-01 0.000000e+00  -1.887817e-01 2.764171e+00 0.000000e+00  8.892393e-03 7.172941e-01 0.000000e+00  2.295305e-01 2.404271e+00 0.000000e+00  3.238285e-01 1.628897e+00 0.000000e+00  1.957889e-01 2.275974e+00 0.000000e+00  1.875319e-01 2.292596e+00 0.000000e+00  1.411915e-01 2.388237e+00 0.000000e+00  1.157008e-02 2.504063e+00 0.000000e+00  -7.671718e-04 2.072145e-01 0.000000e+00  6.846635e-02 1.799746e+00 0.000000e+00  1.380046e-01 2.424358e+00 0.000000e+00  3.058494e-02 1.230136e+00 0.000000e+00  7.051189e-03 1.027344e+00 0.000000e+00  -5.999742e-03 5.404271e-01 0.000000e+00  5.294253e-02 2.451160e+00 0.000000e+00  -1.288485e-01 2.705877e+00 0.000000e+00  4.198569e-02 4.609335e-01 0.000000e+00  5.028462e-01 2.813559e+00 0.000000e+00  -1.676775e-02 1.820606e-01 0.000000e+00  8.620449e-02 1.944505e+00 0.000000e+00  2.593838e-02 1.373046e+00 0.000000e+00  -1.447554e-01 2.701901e+00 0.000000e+00  -1.578597e-01 2.673985e+00 0.000000e+00  1.860276e-02 8.430953e-01 0.000000e+00  2.023310e-01 2.356742e+00 0.000000e+00  2.262339e-01 1.348914e+00 0.000000e+00  2.268607e-01 2.335309e+00 0.000000e+00  9.971053e-02 8.983433e-01 0.000000e+00  1.714876e-02 1.084222e+00 0.000000e+00  -1.178981e-01 2.608196e+00 0.000000e+00  8.581508e-02 9.704984e-01 0.000000e+00  -1.342221e-01 2.842225e+00 0.000000e+00  -1.989508e-01 2.868426e+00 0.000000e+00  3.946093e-01 1.889787e+00 0.000000e+00  -8.623319e-02 2.546137e+00 0.000000e+00  3.949294e-02 1.575175e+00 0.000000e+00  -1.602551e-01 2.806550e+00 0.000000e+00  -1.222111e-01 2.785968e+00 0.000000e+00  -1.409687e-01 2.755095e+00 0.000000e+00  3.992493e-01 3.506262e+00 0.000000e+00  -1.353874e-01 2.617797e+00 0.000000e+00  2.237679e-03 2.464106e+00 0.000000e+00  1.562416e-02 1.526770e+00 0.000000e+00  1.763881e-02 1.475659e+00 0.000000e+00  1.758466e-03 1.288543e+00 0.000000e+00  1.192504e-02 1.044364e+00 0.000000e+00  1.766392e-01 2.346311e+00 0.000000e+00  1.164854e-01 2.210735e+00 0.000000e+00  -2.278425e-01 3.013914e+00 0.000000e+00  1.156891e-02 1.582155e+00 0.000000e+00  -1.622673e-01 2.666649e+00 0.000000e+00  3.747964e-02 1.716009e+00 0.000000e+00  5.727782e-01 3.368188e+00 0.000000e+00  -2.507172e-01 2.896328e+00 0.000000e+00  5.472535e-01 2.901098e+00 0.000000e+00  1.897946e-01 2.385624e+00 0.000000e+00  4.436257e-02 3.882969e+00 0.000000e+00  -1.104772e-01 3.609790e+00 0.000000e+00  1.518152e-01 2.421309e+00 0.000000e+00  -1.956665e-01 4.146126e+00 0.000000e+00  1.849225e-01 2.417719e+00 0.000000e+00  -1.488847e-01 4.274044e+00 0.000000e+00  -1.820614e-01 3.871211e+00 0.000000e+00  -2.599636e-01 4.432667e+00 0.000000e+00  -5.076623e-01 4.575102e+00 0.000000e+00  -2.781664e-01 4.327678e+00 0.000000e+00  -5.271388e-01 4.577396e+00 0.000000e+00  1.645581e-01 2.449165e+00 0.000000e+00  4.730178e-02 1.795619e+00 0.000000e+00  2.925033e-02 1.721733e+00 0.000000e+00  4.079972e-02 2.660361e+00 0.000000e+00  1.088467e-01 1.148360e+00 0.000000e+00  3.407464e-01 2.435509e+00 0.000000e+00  2.498441e-01 2.353472e+00 0.000000e+00  5.018071e-03 5.032803e-01 0.000000e+00  2.766455e-01 2.147929e+00 0.000000e+00  -1.038158e-01 2.621411e+00 0.000000e+00  -3.061074e-02 2.633311e+00 0.000000e+00  2.161755e-01 1.312478e+00 0.000000e+00  4.943931e-02 4.251596e-01 0.000000e+00  1.094313e-01 2.037542e+00 0.000000e+00  7.043259e-03 8.072729e-01 0.000000e+00  6.217962e-02 1.585116e+00 0.000000e+00  -4.651500e-03 3.006226e-01 0.000000e+00  2.347421e-01 2.358497e+00 0.000000e+00  6.336687e-02 2.485219e+00 0.000000e+00  2.044759e-03 2.286623e-01 0.000000e+00  -2.692154e-03 1.285642e-01 0.000000e+00  -1.279090e-01 2.684300e+00 0.000000e+00  2.563883e-01 2.370103e+00 0.000000e+00  8.283972e-02 6.735427e-01 0.000000e+00  2.237572e-01 1.255728e+00 0.000000e+00  3.631031e-02 2.472066e-01 0.000000e+00  1.819737e-01 1.079033e+00 0.000000e+00  3.646556e-01 1.870292e+00 0.000000e+00  9.268399e-02 1.956695e+00 0.000000e+00  -4.236648e-02 2.556412e+00 0.000000e+00  8.149413e-02 3.058071e+00 0.000000e+00  -2.476774e-04 5.519456e-01 0.000000e+00  3.361577e-03 6.936648e-01 0.000000e+00  2.176154e-01 2.374591e+00 0.000000e+00  5.981348e-02 2.431490e+00 0.000000e+00  1.729655e-01 2.392447e+00 0.000000e+00  -1.062550e-01 2.609716e+00 0.000000e+00  4.058984e-02 1.484211e+00 0.000000e+00  1.829110e-01 2.268737e+00 0.000000e+00  6.255009e-02 1.746815e+00 0.000000e+00  3.035700e-01 3.267105e+00 0.000000e+00  1.841114e-01 2.362556e+00 0.000000e+00  3.264916e-02 6.366706e-01 0.000000e+00  6.219330e-03 9.568560e-01 0.000000e+00  -3.190011e-04 6.807858e-01 0.000000e+00  -1.525800e-01 2.875377e+00 0.000000e+00  2.426504e-02 4.913847e-01 0.000000e+00  1.144488e-02 2.488611e+00 0.000000e+00  1.343395e-01 2.121578e+00 0.000000e+00  -1.400682e-01 2.671945e+00 0.000000e+00  -7.364863e-02 2.922842e+00 0.000000e+00  -1.633944e-01 2.737148e+00 0.000000e+00  5.210157e-01 2.676902e+00 0.000000e+00  -1.422295e-01 2.662991e+00 0.000000e+00  2.915765e-01 1.523889e+00 0.000000e+00  4.518200e-01 2.721107e+00 0.000000e+00  -9.497460e-02 2.812565e+00 0.000000e+00  1.489787e-02 1.288614e+00 0.000000e+00  9.144609e-03 1.121632e+00 0.000000e+00  5.065329e-01 3.263348e+00 0.000000e+00  8.045502e-02 1.876257e+00 0.000000e+00  1.345802e-01 2.159199e+00 0.000000e+00  -9.817952e-03 4.244079e-01 0.000000e+00  -9.002397e-02 2.575121e+00 0.000000e+00  1.567248e-01 1.153940e+00 0.000000e+00  4.862400e-02 8.730073e-01 0.000000e+00  1.645724e-01 2.292774e+00 0.000000e+00  -7.335547e-02 2.547524e+00 0.000000e+00  7.300449e-02 9.180539e-01 0.000000e+00  1.565806e-01 1.136108e+00 0.000000e+00  -1.458889e-01 2.641583e+00 0.000000e+00  -1.849639e-01 2.715235e+00 0.000000e+00  5.054769e-02 1.724479e+00 0.000000e+00  -1.917386e-01 2.823042e+00 0.000000e+00  -1.253613e-01 2.594257e+00 0.000000e+00  2.055939e-01 2.308021e+00 0.000000e+00  1.212648e-02 9.257181e-01 0.000000e+00  1.168087e-02 1.354031e+00 0.000000e+00  -1.771512e-01 2.774953e+00 0.000000e+00  1.967270e-01 2.352995e+00 0.000000e+00  5.804866e-03 1.265607e+00 0.000000e+00  -1.482628e-01 2.827320e+00 0.000000e+00  1.143714e-01 2.385758e+00 0.000000e+00  -4.878420e-02 2.503829e+00 0.000000e+00  -1.153719e-03 1.420766e+00 0.000000e+00  8.016596e-03 1.064135e+00 0.000000e+00  -2.335509e-01 2.867500e+00 0.000000e+00  7.313093e-02 1.849227e+00 0.000000e+00  2.041293e-01 2.323343e+00 0.000000e+00  8.814287e-02 2.020479e+00 0.000000e+00  1.353758e-01 1.075509e+00 0.000000e+00  3.402237e-01 1.672125e+00 0.000000e+00  4.375110e-01 3.764930e+00 0.000000e+00  -1.913801e-01 2.997495e+00 0.000000e+00  5.349334e-03