<?xml version="1.0"?>
<VTKFile type="UnstructuredGrid"  version="0.1"  >
<UnstructuredGrid>
<Piece  NumberOfPoints="2868" NumberOfCells="5400">
<Points>
<DataArray  type="Float32"  NumberOfComponents="3"  format="ascii">0.534923 0.326073 0  0.510642 0.314196 0  0.466125 0.293082 0  0.436448 0.281205 0  0.409468 0.275927 0  0.368998 0.270648 0  0.35281 0.275927 0  0.381139 0.302319 0  0.405421 0.326073 0  0.410817 0.33531 0  0.408119 0.349826 0  0.400025 0.357744 0  0.375743 0.368301 0  0.329878 0.392055 0  0.297502 0.432963 0  0.282663 0.476511 0  0.285361 0.524018 0  0.298851 0.572845 0  0.317737 0.604516 0  0.337972 0.636187 0  0.360904 0.674457 0  0.368998 0.69953 0  0.359555 0.721964 0  0.360904 0.757594 0  0.370347 0.766831 0  0.381139 0.762872 0  0.390582 0.741758 0  0.404072 0.720644 0  0.424307 0.707448 0  0.447239 0.702169 0  0.480964 0.704808 0  0.479615 0.688973 0  0.468823 0.675776 0  0.447239 0.669178 0  0.428354 0.669178 0  0.410817 0.6639 0  0.404072 0.653343 0  0.395978 0.628269 0  0.387884 0.59132 0  0.389233 0.576804 0  0.397327 0.557009 0  0.410817 0.547772 0  0.424307 0.546452 0  0.437797 0.55305 0  0.44589 0.566247 0  0.441843 0.582082 0  0.439145 0.597918 0  0.449937 0.609795 0  0.468823 0.603196 0  0.479615 0.59 0  0.489058 0.570205 0  0.494454 0.546452 0  0.505246 0.522699 0  0.522783 0.509502 0  0.55246 0.494986 0  0.586185 0.484429 0  0.615863 0.48047 0  0.64554 0.473872 0  0.667124 0.461995 0  0.683312 0.451438 0  0.696802 0.435603 0  0.703547 0.417128 0  0.71164 0.393374 0  0.718385 0.37226 0  0.72513 0.364342 0  0.739969 0.353785 0  0.745365 0.344548 0  0.745365 0.327393 0  0.737271 0.318155 0  0.718385 0.316835 0  0.700849 0.319475 0  0.677916 0.318155 0  0.650936 0.316835 0  0.610467 0.318155 0  0.57944 0.324753 0  0.559205 0.328712 0  0.53897 0.326073 0  1 1 0  1 0 0  0 0 0  0 1 0  0.532238 0.32476 0  0.528748 0.323052 0  0.52421 0.320833 0  0.518311 0.317947 0  0.503447 0.310783 0  0.494093 0.306347 0  0.481933 0.30058 0  0.452151 0.28749 0  0.392327 0.273691 0  0.379141 0.271971 0  0.360474 0.283066 0  0.369797 0.291752 0  0.391424 0.31238 0  0.399335 0.32012 0  0.40958 0.341964 0  0.393939 0.36039 0  0.386028 0.36383 0  0.364248 0.374254 0  0.349304 0.381994 0  0.315801 0.409841 0  0.292986 0.551616 0  0.350934 0.657818 0  0.360127 0.737055 0  0.360566 0.748664 0  0.385245 0.753692 0  0.396447 0.732578 0  0.466301 0.703661 0  0.459439 0.672908 0  0.418442 0.666195 0  0.400553 0.642441 0  0.39255 0.612619 0  0.389913 0.60058 0  0.392752 0.568197 0  0.444131 0.573132 0  0.458149 0.606926 0  0.500554 0.533026 0  0.571522 0.489019 0  0.632637 0.476741 0  0.689177 0.444553 0  0.708121 0.403702 0  0.715453 0.38144 0  0.732406 0.359166 0  0.745365 0.337089 0  0.72906 0.317581 0  0.629879 0.317522 0  0.59293 0.321884 0  0.568003 0.326991 0  0.55202 0.327775 0  0.546493 0.327054 0  0.542241 0.326499 0  1 0.9 0  1 0.8 0  1 0.7 0  1 0.6 0  1 0.5 0  1 0.4 0  1 0.3 0  1 0.2 0  1 0.1 0  0.9 0 0  0.8 0 0  0.7 0 0  0.6 0 0  0.5 0 0  0.4 0 0  0.3 0 0  0.2 0 0  0.1 0 0  0.1 1 0  0.2 1 0  0.3 1 0  0.4 1 0  0.5 1 0  0.6 1 0  0.7 1 0  0.8 1 0  0.9 1 0  0 0.1 0  0 0.2 0  0 0.3 0  0 0.4 0  0 0.5 0  0 0.6 0  0 0.7 0  0 0.8 0  0 0.9 0  0.535686 0.503191 0  0.753987 0.733359 0  0.167145 0.741436 0  0.173378 0.257204 0  0.733497 0.159862 0  0.554096 0.15788 0  0.849187 0.479053 0  0.488793 0.838452 0  0.138507 0.5592 0  0.30686 0.154944 0  0.348904 0.890523 0  0.058006 0.065099 0  0.069849 0.937917 0  0.93633 0.939704 0  0.934625 0.053613 0  0.343397 0.333452 0  0.473272 0.639943 0  0.433266 0.638072 0  0.415174 0.58269 0  0.533435 0.545042 0  0.390848 0.340652 0  0.53655 0.320242 0  0.127966 0.393775 0  0.83861 0.850455 0  0.635242 0.85513 0  0.852158 0.633441 0  0.653427 0.626848 0  0.861226 0.24292 0  0.166128 0.12976 0  0.216875 0.869871 0  0.458305 0.11179 0  0.84446 0.101633 0  0.202024 0.642528 0  0.644825 0.115855 0  0.671342 0.218358 0  0.251354 0.286186 0  0.262388 0.75153 0  0.063044 0.751571 0  0.068189 0.242962 0  0.435781 0.905395 0  0.934144 0.451133 0  0.568393 0.237622 0  0.814984 0.395506 0  0.752951 0.517227 0  0.456254 0.780699 0  0.073352 0.531116 0  0.337731 0.206071 0  0.363213 0.960371 0  0.330742 0.363592 0  0.516613 0.55705 0  0.369057 0.332992 0  0.500926 0.617309 0  0.498004 0.665534 0  0.412142 0.61178 0  0.454233 0.636604 0  0.422782 0.567496 0  0.541193 0.52148 0  0.439761 0.65557 0  0.5163 0.533672 0  0.414775 0.64562 0  0.40073 0.576135 0  0.430362 0.588034 0  0.385432 0.351492 0  0.400298 0.335397 0  0.398325 0.348194 0  0.528702 0.314885 0  0.540814 0.322334 0  0.534477 0.322953 0  0.619095 0.743583 0  0.885162 0.737972 0  0.08076 0.668849 0  0.90734 0.36634 0  0.094687 0.868937 0  0.759838 0.912152 0  0.901518 0.540898 0  0.747285 0.607479 0  0.229182 0.071641 0  0.069154 0.450091 0  0.244775 0.203309 0  0.076534 0.331755 0  0.897847 0.167826 0  0.578909 0.911415 0  0.077133 0.146341 0  0.477215 0.203448 0  0.922631 0.869341 0  0.517415 0.074785 0  0.297026 0.827793 0  0.783271 0.246505 0  0.74519 0.061079 0  0.36033 0.069068 0  0.210313 0.475228 0  0.859426 0.928758 0  0.574548 0.609182 0  0.243069 0.383398 0  0.283099 0.934598 0  0.417416 0.843141 0  0.643942 0.553164 0  0.112687 0.079336 0  0.281357 0.658386 0  0.765043 0.436177 0  0.611361 0.198486 0  0.234496 0.58911 0  0.206479 0.702638 0  0.679608 0.155818 0  0.62682 0.259978 0  0.690538 0.264164 0  0.448938 0.956308 0  0.808154 0.328403 0  0.379583 0.91913 0  0.308083 0.297769 0  0.312358 0.730249 0  0.563101 0.278576 0  0.435597 0.746198 0  0.385475 0.225229 0  0.572248 0.518034 0  0.357864 0.35422 0  0.497647 0.641694 0  0.458101 0.655768 0  0.360474 0.310727 0  0.467038 0.620139 0  0.47798 0.659909 0  0.41102 0.628072 0  0.48324 0.609015 0  0.427544 0.617941 0  0.388633 0.328253 0  0.405336 0.599404 0  0.408351 0.565178 0  0.42395 0.600985 0  0.431562 0.576523 0  0.424905 0.655198 0  0.398064 0.58782 0  0.427739 0.557934 0  0.519291 0.303443 0  0.53142 0.320293 0  0.5449 0.323642 0  0.537166 0.323513 0  0.153974 0.920841 0  0.918186 0.67343 0  0.759946 0.820588 0  0.537526 0.783091 0  0.816532 0.545843 0  0.813991 0.178083 0  0.836774 0.702023 0  0.149815 0.318856 0  0.662287 0.923338 0  0.680146 0.791192 0  0.708961 0.663172 0  0.937278 0.287318 0  0.574622 0.688166 0  0.589474 0.076262 0  0.502822 0.926683 0  0.222269 0.811068 0  0.380457 0.164786 0  0.15321 0.684154 0  0.458063 0.051413 0  0.161702 0.056026 0  0.199351 0.198818 0  0.298946 0.095532 0  0.902465 0.795949 0  0.121139 0.791477 0  0.906269 0.112287 0  0.056109 0.822332 0  0.512172 0.13237 0  0.940964 0.741805 0  0.888887 0.408777 0  0.354543 0.825964 0  0.808736 0.068638 0  0.068507 0.394071 0  0.719105 0.563843 0  0.247287 0.149664 0  0.293062 0.237128 0  0.240524 0.434997 0  0.141255 0.623289 0  0.945202 0.160621 0  0.502914 0.247629 0  0.144669 0.480811 0  0.665025 0.060817 0  0.728047 0.224344 0  0.861995 0.313312 0  0.200068 0.534235 0  0.253262 0.965623 0  0.893804 0.49307 0  0.604391 0.572456 0  0.947088 0.345347 0  0.439372 0.227307 0  0.629847 0.159823 0  0.273405 0.880181 0  0.302744 0.776823 0  0.781502 0.295365 0  0.275342 0.349602 0  0.728385 0.472798 0  0.229136 0.246478 0  0.807794 0.480346 0  0.709476 0.112786 0  0.275506 0.694991 0  0.771674 0.394419 0  0.449715 0.861802 0  0.419159 0.799696 0  0.674851 0.503139 0  0.280443 0.61016 0  0.572443 0.192538 0  0.393113 0.87525 0  0.405555 0.948428 0  0.330942 0.934103 0  0.540509 0.597101 0  0.312763 0.668931 0  0.254368 0.540179 0  0.595265 0.25915 0  0.606679 0.234099 0  0.657131 0.279138 0  0.722458 0.279478 0  0.333 0.308056 0  0.351529 0.246142 0  0.455714 0.725794 0  0.585239 0.295143 0  0.340062 0.72492 0  0.545593 0.293773 0  0.555449 0.545426 0  0.414311 0.737314 0  0.590854 0.502323 0  0.350507 0.368444 0  0.484423 0.625665 0  0.483899 0.674542 0  0.378137 0.317274 0  0.446416 0.646404 0  0.373532 0.347654 0  0.446876 0.619769 0  0.466106 0.666068 0  0.437545 0.609254 0  0.434988 0.565726 0  0.41462 0.656829 0  0.418803 0.556961 0  0.398425 0.327446 0  0.517803 0.310421 0  0.549516 0.322918 0  0.57701 0.842889 0  0.829127 0.773906 0  0.643235 0.684732 0  0.134281 0.207734 0  0.865997 0.055966 0  0.680959 0.723345 0  0.165229 0.841555 0  0.54558 0.959672 0  0.783726 0.656439 0  0.913315 0.595533 0  0.699439 0.860667 0  0.785839 0.125076 0  0.551673 0.037713 0  0.920097 0.223214 0  0.206406 0.299726 0  0.087064 0.596401 0  0.935644 0.394252 0  0.964557 0.252582 0  0.230124 0.928346 0  0.120579 0.271764 0  0.857215 0.524082 0  0.767098 0.555147 0  0.936094 0.507131 0  0.804064 0.59585 0  0.700565 0.608273 0  0.429773 0.174231 0  0.117746 0.727333 0  0.538962 0.730231 0  0.862761 0.359173 0  0.821444 0.284046 0  0.193552 0.35818 0  0.234923 0.505555 0  0.193209 0.421217 0  0.220144 0.755896 0  0.594015 0.131642 0  0.283813 0.195855 0  0.517519 0.213961 0  0.553509 0.639116 0  0.280391 0.378018 0  0.852183 0.436817 0  0.746983 0.197173 0  0.821806 0.221318 0  0.449853 0.828453 0  0.883758 0.453926 0  0.183484 0.589542 0  0.348384 0.129314 0  0.255254 0.838525 0  0.504849 0.798516 0  0.320344 0.863432 0  0.611669 0.525425 0  0.265864 0.804962 0  0.72056 0.521442 0  0.613372 0.610122 0  0.481262 0.881068 0  0.655778 0.191988 0  0.701921 0.196918 0  0.565826 0.573181 0  0.46914 0.240927 0  0.343219 0.173284 0  0.888786 0.278502 0  0.244113 0.675093 0  0.739546 0.417914 0  0.784023 0.355942 0  0.326805 0.265549 0  0.248616 0.634948 0  0.789183 0.413964 0  0.764107 0.476606 0  0.32086 0.698956 0  0.334735 0.791464 0  0.53448 0.258468 0  0.395208 0.824575 0  0.309962 0.638947 0  0.263264 0.22712 0  0.756395 0.267254 0  0.639281 0.224663 0  0.358631 0.85116 0  0.309751 0.332089 0  0.663461 0.246436 0  0.424083 0.871774 0  0.269645 0.445719 0  0.272183 0.572741 0  0.624492 0.294638 0  0.717827 0.250266 0  0.408215 0.763744 0  0.485997 0.274924 0  0.288138 0.274311 0  0.410524 0.242487 0  0.741513 0.385737 0  0.691284 0.483519 0  0.515531 0.581849 0  0.463005 0.753402 0  0.681919 0.
[...]
<PointData  Vectors="u"> 
<DataArray  type="Float32"  Name="u"  NumberOfComponents="3" format="ascii">-2.001156e-01 3.719964e+01 0.000000e+00  -1.405956e-01 3.845250e+01 0.000000e+00  5.886181e-01 4.082336e+01 0.000000e+00  1.439571e+00 4.206728e+01 0.000000e+00  2.190402e+00 4.294295e+01 0.000000e+00  3.140699e+00 4.421401e+01 0.000000e+00  3.983868e+00 4.548199e+01 0.000000e+00  5.332927e+00 4.730093e+01 0.000000e+00  6.194437e+00 4.771419e+01 0.000000e+00  6.365273e+00 4.769557e+01 0.000000e+00  6.403214e+00 4.755686e+01 0.000000e+00  6.267068e+00 4.729887e+01 0.000000e+00  5.876892e+00 4.640529e+01 0.000000e+00  5.143894e+00 4.494556e+01 0.000000e+00  3.812166e+00 4.368964e+01 0.000000e+00  2.047827e+00 4.290590e+01 0.000000e+00  2.112165e-02 4.264377e+01 0.000000e+00  -1.926426e+00 4.289654e+01 0.000000e+00  -2.959437e+00 4.336389e+01 0.000000e+00  -3.534653e+00 4.389088e+01 0.000000e+00  -3.286825e+00 4.422772e+01 0.000000e+00  -2.567816e+00 4.410124e+01 0.000000e+00  -1.712028e+00 4.360285e+01 0.000000e+00  -3.916459e-01 4.155569e+01 0.000000e+00  1.486432e-01 4.007938e+01 0.000000e+00  5.034199e-01 3.895920e+01 0.000000e+00  9.605050e-01 3.823226e+01 0.000000e+00  1.324306e+00 3.796509e+01 0.000000e+00  1.644604e+00 3.764058e+01 0.000000e+00  1.995086e+00 3.691468e+01 0.000000e+00  3.308397e+00 3.384196e+01 0.000000e+00  4.372157e+00 3.221093e+01 0.000000e+00  4.654028e+00 3.156563e+01 0.000000e+00  4.685991e+00 3.154201e+01 0.000000e+00  4.659627e+00 3.169217e+01 0.000000e+00  4.619154e+00 3.180934e+01 0.000000e+00  4.581058e+00 3.186214e+01 0.000000e+00  4.484833e+00 3.198087e+01 0.000000e+00  4.330374e+00 3.211508e+01 0.000000e+00  4.282349e+00 3.213890e+01 0.000000e+00  4.227772e+00 3.215268e+01 0.000000e+00  4.222809e+00 3.214463e+01 0.000000e+00  4.245224e+00 3.211346e+01 0.000000e+00  4.307232e+00 3.204178e+01 0.000000e+00  4.388744e+00 3.197340e+01 0.000000e+00  4.446430e+00 3.193310e+01 0.000000e+00  4.522713e+00 3.185127e+01 0.000000e+00  4.655605e+00 3.158232e+01 0.000000e+00  4.586892e+00 3.088933e+01 0.000000e+00  4.338754e+00 3.020473e+01 0.000000e+00  3.962236e+00 2.943280e+01 0.000000e+00  3.592198e+00 2.882379e+01 0.000000e+00  3.163440e+00 2.821913e+01 0.000000e+00  2.755989e+00 2.755284e+01 0.000000e+00  2.199470e+00 2.643782e+01 0.000000e+00  1.809382e+00 2.510412e+01 0.000000e+00  1.600665e+00 2.366257e+01 0.000000e+00  1.318810e+00 2.169650e+01 0.000000e+00  9.180775e-01 1.988868e+01 0.000000e+00  5.314367e-01 1.842608e+01 0.000000e+00  6.526588e-04 1.705011e+01 0.000000e+00  -5.006389e-01 1.624040e+01 0.000000e+00  -1.019013e+00 1.564766e+01 0.000000e+00  -1.340882e+00 1.536192e+01 0.000000e+00  -1.443595e+00 1.525072e+01 0.000000e+00  -1.638995e+00 1.507938e+01 0.000000e+00  -1.823825e+00 1.523455e+01 0.000000e+00  -2.137008e+00 1.629916e+01 0.000000e+00  -2.350402e+00 1.794294e+01 0.000000e+00  -2.341906e+00 2.060256e+01 0.000000e+00  -2.234395e+00 2.259604e+01 0.000000e+00  -2.192301e+00 2.501496e+01 0.000000e+00  -2.017240e+00 2.797643e+01 0.000000e+00  -1.350226e+00 3.221017e+01 0.000000e+00  -6.247288e-01 3.484802e+01 0.000000e+00  -3.202168e-01 3.604378e+01 0.000000e+00  -2.149842e-01 3.703072e+01 0.000000e+00  0.000000e+00 0.000000e+00 0.000000e+00  0.000000e+00 0.000000e+00 0.000000e+00  4.347220e+00 4.379706e+01 0.000000e+00  -2.931004e+00 4.246212e+01 0.000000e+00  -2.065112e-01 3.730932e+01 0.000000e+00  -2.090227e-01 3.747665e+01 0.000000e+00  -2.042298e-01 3.770965e+01 0.000000e+00  -1.857662e-01 3.802673e+01 0.000000e+00  -7.678441e-02 3.885535e+01 0.000000e+00  3.564956e-02 3.937333e+01 0.000000e+00  2.344176e-01 4.002681e+01 0.000000e+00  9.601011e-01 4.144903e+01 0.000000e+00  2.594378e+00 4.342185e+01 0.000000e+00  2.878315e+00 4.381432e+01 0.000000e+00  4.400518e+00 4.644355e+01 0.000000e+00  4.839237e+00 4.692116e+01 0.000000e+00  5.748575e+00 4.754031e+01 0.000000e+00  6.025013e+00 4.766860e+01 0.000000e+00  6.414584e+00 4.764651e+01 0.000000e+00  6.175691e+00 4.709093e+01 0.000000e+00  6.045937e+00 4.678973e+01 0.000000e+00  5.683155e+00 4.600084e+01 0.000000e+00  5.451985e+00 4.553863e+01 0.000000e+00  4.645002e+00 4.437547e+01 0.000000e+00  -1.119658e+00 4.273645e+01 0.000000e+00  -3.539651e+00 4.415373e+01 0.000000e+00  -1.075382e+00 4.288444e+01 0.000000e+00  -6.703144e-01 4.227191e+01 0.000000e+00  7.598589e-01 3.850319e+01 0.000000e+00  1.120449e+00 3.808573e+01 0.000000e+00  2.491013e+00 3.579731e+01 0.000000e+00  4.686814e+00 3.149136e+01 0.000000e+00  4.636794e+00 3.176503e+01 0.000000e+00  4.542096e+00 3.191198e+01 0.000000e+00  4.420197e+00 3.204587e+01 0.000000e+00  4.367914e+00 3.208932e+01 0.000000e+00  4.256813e+00 3.214661e+01 0.000000e+00  4.411673e+00 3.196011e+01 0.000000e+00  4.659611e+00 3.131665e+01 0.000000e+00  3.356608e+00 2.847125e+01 0.000000e+00  1.964464e+00 2.570937e+01 0.000000e+00  1.450142e+00 2.263395e+01 0.000000e+00  3.141775e-01 1.779660e+01 0.000000e+00  -8.118894e-01 1.586621e+01 0.000000e+00  -1.220661e+00 1.546068e+01 0.000000e+00  -1.527502e+00 1.514604e+01 0.000000e+00  -1.998416e+00 1.556561e+01 0.000000e+00  -2.342654e+00 1.921662e+01 0.000000e+00  -1.717972e+00 3.023927e+01 0.000000e+00  -9.146048e-01 3.382647e+01 0.000000e+00  -4.275080e-01 3.558022e+01 0.000000e+00  -2.826917e-01 3.638601e+01 0.000000e+00  -2.525128e-01 3.666275e+01 0.000000e+00  -2.308215e-01 3.687206e+01 0.000000e+00  0.000000e+00 0.000000e+00 0.000000e+00  0.000000e+00 0.000000e+00 0.000000e+00  0.000000e+00 0.000000e+00 0.000000e+00  0.000000e+00 0.000000e+00 0.000000e+00  0.000000e+00 0.000000e+00 0.000000e+00  0.000000e+00 0.000000e+00 0.000000e+00  0.000000e+00 0.000000e+00 0.000000e+00  0.000000e+00 0.000000e+00 0.000000e+00  0.000000e+00 0.000000e+00 0.000000e+00  -1.484522e-01 7.398466e+00 0.000000e+00  -2.996544e-01 1.479601e+01 0.000000e+00  -2.128426e-01 2.224965e+01 0.000000e+00  2.989169e-01 2.925030e+01 0.000000e+00  1.191336e+00 3.509861e+01 0.000000e+00  2.238071e+00 3.937192e+01 0.000000e+00  3.206338e+00 4.201923e+01 0.000000e+00  3.900585e+00 4.329207e+01 0.000000e+00  4.253059e+00 4.371176e+01 0.000000e+00  -2.754072e+00 4.219363e+01 0.000000e+00  -2.263164e+00 4.132436e+01 0.000000e+00  -1.487690e+00 3.937870e+01 0.000000e+00  -6.711127e-01 3.607816e+01 0.000000e+00  -5.843474e-02 3.164708e+01 0.000000e+00  3.008214e-01 2.636642e+01 0.000000e+00  4.143857e-01 2.042627e+01 0.000000e+00  3.292622e-01 1.402047e+01 0.000000e+00  1.461596e-01 7.266721e+00 0.000000e+00  4.450244e+00 4.380660e+01 0.000000e+00  4.437576e+00 4.368404e+01 0.000000e+00  3.831458e+00 4.335648e+01 0.000000e+00  2.358583e+00 4.292786e+01 0.000000e+00  2.569113e-01 4.261751e+01 0.000000e+00  -1.775102e+00 4.254787e+01 0.000000e+00  -3.057727e+00 4.262529e+01 0.000000e+00  -3.408849e+00 4.265597e+01 0.000000e+00  -3.175770e+00 4.256636e+01 0.000000e+00  2.500044e+00 2.707007e+01 0.000000e+00  1.084164e+00 1.630732e+01 0.000000e+00  -3.396596e+00 4.283196e+01 0.000000e+00  4.853399e+00 4.397307e+01 0.000000e+00  -9.898147e-01 1.979838e+01 0.000000e+00  1.919530e-01 3.377499e+01 0.000000e+00  -1.262608e-01 9.040625e+00 0.000000e+00  4.666557e-01 3.304441e+01 0.000000e+00  -1.019080e+00 4.237398e+01 0.000000e+00  3.639978e+00 4.341855e+01 0.000000e+00  -9.585310e-01 3.895108e+01 0.000000e+00  4.387234e+00 4.382573e+01 0.000000e+00  -2.938368e+00 4.246616e+01 0.000000e+00  7.081542e-02 4.606890e+00 0.000000e+00  -7.966039e-02 4.765098e+00 0.000000e+00  5.701274e+00 4.581935e+01 0.000000e+00  4.564700e+00 3.119193e+01 0.000000e+00  4.650685e+00 3.172915e+01 0.000000e+00  4.359970e+00 3.205083e+01 0.000000e+00  2.940984e+00 2.775447e+01 0.000000e+00  6.206675e+00 4.724686e+01 0.000000e+00  -1.892903e-01 3.711986e+01 0.000000e+00  3.120315e+00 4.293408e+01 0.000000e+00  3.944885e-01 1.108038e+01 0.000000e+00  7.867528e-01 2.451188e+01 0.000000e+00  5.617772e-01 9.051877e+00 0.000000e+00  1.845517e+00 2.269734e+01 0.000000e+00  -5.035146e-01 9.312074e+00 0.000000e+00  4.439433e+00 4.395954e+01 0.000000e+00  -2.527860e+00 4.207895e+01 0.000000e+00  1.581278e+00 3.834834e+01 0.000000e+00  -3.609562e-01 1.126386e+01 0.000000e+00  -2.910897e+00 4.270864e+01 0.000000e+00  -4.502449e-01 2.686943e+01 0.000000e+00  -1.485526e+00 2.523552e+01 0.000000e+00  5.161721e+00 4.444013e+01 0.000000e+00  -3.034106e+00 4.292061e+01 0.000000e+00  -3.366420e+00 4.269229e+01 0.000000e+00  4.498361e+00 4.364544e+01 0.000000e+00  -2.312767e-01 3.523092e+01 0.000000e+00  -1.599371e-01 3.507534e+00 0.000000e+00  -3.963527e-01 3.402213e+01 0.000000e+00  -7.570158e-01 1.153383e+01 0.000000e+00  3.358308e-01 1.495598e+01 0.000000e+00  8.186018e-01 3.519096e+01 0.000000e+00  -3.452902e-01 4.247993e+01 0.000000e+00  3.506686e+00 4.366974e+01 0.000000e+00  -9.334906e-01 3.776847e+01 0.000000e+00  5.454285e+00 4.526950e+01 0.000000e+00  3.300983e+00 2.848528e+01 0.000000e+00  5.915642e+00 4.661266e+01 0.000000e+00  4.040977e+00 3.009766e+01 0.000000e+00  4.028150e+00 3.125506e+01 0.000000e+00  4.484649e+00 3.198253e+01 0.000000e+00  4.677835e+00 3.147665e+01 0.000000e+00  4.315293e+00 3.205567e+01 0.000000e+00  2.607056e+00 2.715352e+01 0.000000e+00  4.679952e+00 3.162460e+01 0.000000e+00  3.096575e+00 2.812436e+01 0.000000e+00  4.602058e+00 3.184319e+01 0.000000e+00  4.297672e+00 3.212580e+01 0.000000e+00  4.429783e+00 3.194508e+01 0.000000e+00  6.116002e+00 4.693434e+01 0.000000e+00  6.289053e+00 4.756921e+01 0.000000e+00  6.294109e+00 4.737559e+01 0.000000e+00  -1.492396e-01 3.748995e+01 0.000000e+00  -2.138256e-01 3.692370e+01 0.000000e+00  -1.938487e-01 3.721858e+01 0.000000e+00  1.509374e+00 2.553622e+01 0.000000e+00  3.451267e-01 7.448115e+00 0.000000e+00  -2.863223e+00 4.260467e+01 0.000000e+00  -3.530107e-01 5.680589e+00 0.000000e+00  -3.132923e+00 4.259811e+01 0.000000e+00  4.840038e-01 1.652515e+01 0.000000e+00  3.119133e-01 5.587920e+00 0.000000e+00  1.124743e+00 1.596382e+01 0.000000e+00  3.886548e+00 4.348389e+01 0.000000e+00  1.579565e+00 4.267732e+01 0.000000e+00  4.595268e+00 4.425241e+01 0.000000e+00  3.819672e+00 4.325806e+01 0.000000e+00  -2.454175e-01 7.077511e+00 0.000000e+00  4.251837e-01 2.779112e+01 0.000000e+00  4.560770e+00 4.385678e+01 0.000000e+00  1.221756e+00 3.879938e+01 0.000000e+00  1.087570e-01 5.412512e+00 0.000000e+00  9.267056e-01 3.495243e+01 0.000000e+00  -1.785327e+00 4.144156e+01 0.000000e+00  -1.137540e+00 1.507874e+01 0.000000e+00  -4.175731e-01 1.894099e+01 0.000000e+00  2.711579e+00 4.131798e+01 0.000000e+00  1.540207e+00 4.257437e+01 0.000000e+00  2.428519e-01 9.899941e+00 0.000000e+00  2.683170e+00 2.703152e+01 0.000000e+00  4.305775e+00 4.360286e+01 0.000000e+00  -1.672487e+00 4.037983e+01 0.000000e+00  -6.602318e-02 3.654489e+01 0.000000e+00  1.703512e+00 2.267453e+01 0.000000e+00  4.360012e+00 4.385477e+01 0.000000e+00  -3.380265e+00 4.332250e+01 0.000000e+00  -7.764355e-01 1.400753e+01 0.000000e+00  -7.985002e-01 3.019566e+01 0.000000e+00  -2.014669e+00 4.262654e+01 0.000000e+00  -3.395277e+00 4.291223e+01 0.000000e+00  -9.343529e-01 2.429107e+01 0.000000e+00  -1.450249e+00 2.967026e+01 0.000000e+00  -1.969091e+00 2.354020e+01 0.000000e+00  -2.952562e-01 3.429957e+01 0.000000e+00  -8.017034e-01 1.244441e+01 0.000000e+00  -7.182114e-01 3.751582e+01 0.000000e+00  5.329378e+00 4.514203e+01 0.000000e+00  -2.711441e+00 4.318217e+01 0.000000e+00  -4.176320e-01 3.510637e+01 0.000000e+00  1.149766e+00 3.670173e+01 0.000000e+00  2.720962e+00 4.273700e+01 0.000000e+00  2.202438e+00 2.596187e+01 0.000000e+00  5.778379e+00 4.604566e+01 0.000000e+00  4.152570e+00 3.069242e+01 0.000000e+00  4.688681e+00 3.147150e+01 0.000000e+00  5.496332e+00 4.648069e+01 0.000000e+00  4.599551e+00 3.113305e+01 0.000000e+00  4.528120e+00 3.140045e+01 0.000000e+00  4.542664e+00 3.192828e+01 0.000000e+00  4.348382e+00 3.048343e+01 0.000000e+00  4.568406e+00 3.185639e+01 0.000000e+00  6.090377e+00 4.732331e+01 0.000000e+00  4.408701e+00 3.205268e+01 0.000000e+00  4.266917e+00 3.212359e+01 0.000000e+00  4.471532e+00 3.194583e+01 0.000000e+00  4.384412e+00 3.198082e+01 0.000000e+00  4.645316e+00 3.174804e+01 0.000000e+00  4.340220e+00 3.210786e+01 0.000000e+00  4.290776e+00 3.206487e+01 0.000000e+00  -2.297820e-02 3.795651e+01 0.000000e+00  -1.840111e-01 3.735743e+01 0.000000e+00  -2.368833e-01 3.672600e+01 0.000000e+00  -2.014901e-01 3.710289e+01 0.000000e+00  -2.698822e+00 4.222555e+01 0.000000e+00  2.234275e-01 4.989122e+00 0.000000e+00  7.566599e-01 1.628657e+01 0.000000e+00  1.149032e+00 3.052938e+01 0.000000e+00  3.750263e-01 1.103265e+01 0.000000e+00  -7.035116e-01 1.322913e+01 0.000000e+00  6.493392e-01 1.047187e+01 0.000000e+00  4.416650e+00 4.351855e+01 0.000000e+00  5.188540e-01 2.278759e+01 0.000000e+00  1.115069e+00 2.156823e+01 0.000000e+00  1.486457e+00 1.904696e+01 0.000000e+00  -2.191053e-01 3.854546e+00 0.000000e+00  2.204515e+00 2.810496e+01 0.000000e+00  1.983271e-01 3.054625e+01 0.000000e+00  8.114102e-02 3.186085e+01 0.000000e+00  -2.861598e+00 4.253289e+01 0.000000e+00  2.674748e+00 4.194603e+01 0.000000e+00  -3.179986e+00 4.271775e+01 0.000000e+00  1.614527e+00 3.764372e+01 0.000000e+00  4.161973e+00 4.373290e+01 0.000000e+00  4.715538e+00 4.414836e+01 0.000000e+00  3.428131e+00 4.289587e+01 0.000000e+00  2.163296e-01 6.552521e+00 0.000000e+00  -3.352824e+00 4.274381e+01 0.000000e+00  -1.683817e-01 6.674752e+00 0.000000e+00  -3.348596e+00 4.266926e+01 0.000000e+00  8.467130e-01 3.593755e+01 0.000000e+00  1.056220e-01 3.805359e+00 0.000000e+00  -3.198135e-01 6.742940e+00 0.000000e+00  -6.925339e-01 3.963811e+01 0.000000e+00  -3.816345e-01 1.405475e+01 0.000000e+00  2.772361e+00 4.292556e+01 0.000000e+00  1.075881e+00 1.760814e+01 0.000000e+00  4.181203e+00 4.389680e+01 0.000000e+00  4.552636e+00 4.457062e+01 0.000000e+00  3.016840e+00 4.305927e+01 0.000000e+00  -2.382225e+00 4.251266e+01 0.000000e+00  -7.661512e-02 3.764332e+00 0.000000e+00  6.494890e-01 3.821798e+01 0.000000e+00  1.086465e+00 4.246473e+01 0.000000e+00  -2.323102e-01 2.505769e+01 0.000000e+00  -1.518203e+00 2.003793e+01 0.000000e+00  -5.249170e-01 8.920647e+00 0.000000e+00  -3.666861e-01 4.238440e+01 0.000000e+00  -1.896909e+00 4.072816e+01 0.000000e+00  9.551426e-02 6.183866e+00 0.000000e+00  2.186227e+00 2.509832e+01 0.000000e+00  -3.235888e-01 2.985467e+00 0.000000e+00  1.807663e+00 4.085991e+01 0.000000e+00  -6.776859e-01 2.834675e+01 0.000000e+00  -1.899157e+00 4.117217e+01 0.000000e+00  -2.140315e+00 4.233888e+01 0.000000e+00  -1.141613e+00 1.457983e+01 0.000000e+00  5.126463e+00 4.434710e+01 0.000000e+00  -9.275343e-02 1.610585e+01 0.000000e+00  4.946584e+00 4.431835e+01 0.000000e+00  -2.183837e-01 1.154590e+01 0.000000e+00  -6.636983e-01 2.177535e+01 0.000000e+00  -3.400712e+00 4.328281e+01 0.000000e+00  -1.098199e+00 1.387378e+01 0.000000e+00  6.866685e-02 3.487258e+01 0.000000e+00  2.395768e-01 3.682868e+01 0.000000e+00  1.049049e+00 2.004199e+01 0.000000e+00  -2.749672e+00 4.307912e+01 0.000000e+00  -2.409756e-01 3.302535e+01 0.000000e+00  -4.438658e-01 3.736154e+01 0.000000e+00  -5.758069e-01 3.623570e+01 0.000000e+00  -1.201724e+00 3.908707e+01 0.000000e+00  3.188422e+00 2.831306e+01 0.000000e+00  -3.434606e+00 4.369597e+01 0.000000e+00  -5.813914e-01 4.258446e+01 0.000000e+00  -9.498185e-01 3.236860e+01 0.000000e+00  -9.925781e-01 3.104064e+01 0.000000e+00  -1.917309e+00 2.697467e+01 0.000000e+00  -2.040695e+00 2.022038e+01 0.000000e+00  5.440601e+00 4.563017e+01 0.000000e+00  3.480105e+00 4.422975e+01 0.000000e+00  1.909062e+00 3.594040e+01 0.000000e+00  -8.372518e-01 3.384420e+01 0.000000e+00  -2.237254e+00 4.334593e+01 0.000000e+00  -1.743511e-01 3.643209e+01 0.000000e+00  2.635715e+00 2.695236e+01 0.000000e+00  1.062342e+00 3.766179e+01 0.000000e+00  1.897367e+00 2.504145e+01 0.000000e+00  5.581541e+00 4.570921e+01 0.000000e+00  4.379292e+00 3.073917e+01 0.000000e+00  4.351063e+00 3.171337e+01 0.000000e+00  5.779655e+00 4.708908e+01 0.000000e+00  4.688813e+00 3.157522e+01 0.000000e+00  5.984512e+00 4.659388e+01 0.000000e+00  4.651799e+00 3.160618e+01 0.000000e+00  4.667523e+00 3.148251e+01 0.000000e+00  4.569782e+00 3.179416e+01 0.000000e+00  4.350673e+00 3.200570e+01 0.000000e+00  4.619296e+00 3.180944e+01 0.000000e+00  4.258949e+00 3.210468e+01 0.000000e+00  6.175638e+00 4.759934e+01 0.000000e+00  -9.768329e-02 3.805485e+01 0.000000e+00  -2.601859e-01 3.648720e+01 0.000000e+00  7.713088e-01 2.807784e+01 0.000000e+00  5.826411e-01 1.139157e+01 0.000000e+00  1.795084e+00 2.374763e+01 0.000000e+00  4.724785e+00 4.393553e+01 0.000000e+00  -2.351448e-01 9.786243e+00 0.000000e+00  1.467073e+00 2.131648e+01 0.000000e+00  -3.022578e+00 4.256684e+01 0.000000e+00  1.762511e-01 2.948312e+01 0.000000e+00  9.941878e-01 1.377982e+01 0.000000e+00  2.834244e-01 4.948217e+00 0.000000e+00  7.406466e-01 2.040534e+01 0.000000e+00  -6.339358e-01 1.567771e+01 0.000000e+00  6.580955e-01 3.259944e+01 0.000000e+00  -1.980996e-01 5.282629e+00 0.000000e+00  4.932061e+00 4.397509e+01 0.000000e+00  -1.770657e+00 4.247595e+01 0.000000e+00  -6.889017e-02 3.585735e+00 0.000000e+00  -6.155013e-02 2.213035e+00 0.000000e+00  -2.166716e+00 4.142543e+01 0.000000e+00  4.585168e+00 4.367773e+01 0.000000e+00  2.081637e-01 8.447660e+00 0.000000e+00  6.509813e-01 1.426420e+01 0.000000e+00  3.198917e-01 3.322853e+00 0.000000e+00  7.166500e-01 1.203607e+01 0.000000e+00  1.467132e+00 1.927557e+01 0.000000e+00  1.973152e+00 4.039486e+01 0.000000e+00  -3.342511e+00 4.273963e+01 0.000000e+00  1.781186e+00 3.041997e+01 0.000000e+00  -5.202183e-01 8.700536e+00 0.000000e+00  -7.529100e-01 1.186848e+01 0.000000e+00  4.274725e+00 4.342924e+01 0.000000e+00  6.299180e-01 4.253935e+01 0.000000e+00  2.979130e+00 4.288214e+01 0.000000e+00  -3.258922e+00 4.288296e+01 0.000000e+00  -1.382688e-01 3.075517e+01 0.000000e+00  4.214358e+00 4.412430e+01 0.000000e+00  5.377396e-01 3.685895e+01 0.000000e+00  3.000126e+00 2.850248e+01 0.000000e+00  4.782545e+00 4.415896e+01 0.000000e+00  -3.875455e-01 9.012217e+00 0.000000e+00  -1.208679e+00 1.852499e+01 0.000000e+00  -7.487593e-01 1.233500e+01 0.000000e+00  2.825069e-01 3.510458e+01 0.000000e+00  -1.858890e-01 6.927392e+00 0.000000e+00  -1.840141e+00 4.244900e+01 0.000000e+00  3.006264e+00 4.231693e+01 0.000000e+00  -2.329376e+00 4.197389e+01 0.000000e+00  9.047874e-01 3.236744e+01 0.000000e+00  -1.305282e+00 4.024993e+01 0.000000e+00  1.879400e+00 2.424280e+01 0.000000e+00  -2.452058e+00 4.228319e+01 0.000000e+00  6.562634e-01 1.711734e+01 0.000000e+00  2.189726e+00 2.503551e+01 0.000000e+00  1.611649e-01 3.319260e+01 0.000000e+00  -1.151127e+00 2.646276e+01 0.000000e+00  -1.341375e+00 2.245059e+01 0.000000e+00  2.674864e+00 2.690822e+01 0.000000e+00  1.242442e+00 3.980580e+01 0.000000e+00  3.246662e+00 4.302882e+01 0.000000e+00  -3.975068e-01 7.205669e+00 0.000000e+00  -3.375155e+00 4.305004e+01 0.000000e+00  -9.741165e-01 1.515169e+01 0.000000e+00  -1.044428e+00 1.365338e+01 0.000000e+00  4.532346e+00 4.509120e+01 0.000000e+00  -3.010064e+00 4.293617e+01 0.000000e+00  -8.675618e-01 1.285967e+01 0.000000e+00  -2.568812e-01 1.408707e+01 0.000000e+00  -3.121115e+00 4.364781e+01 0.000000e+00  -1.155306e+00 4.125995e+01 0.000000e+00  1.034626e-01 3.659145e+01 0.000000e+00  -1.444648e-01 3.775066e+01 0.000000e+00  -3.357003e+00 4.358035e+01 0.000000e+00  4.696087e+00 4.442282e+01 0.000000e+00  -1.535752e+00 1.705645e+01 0.000000e+00  -1.317061e+00 2.815032e+01 0.000000e+00  -7.276324e-01 3.907747e+01 0.000000e+00  5.497488e+00 4.506127e+01 0.000000e+00  -1.706213e+00 2.611664e+01 0.000000e+00  -1.682195e-01 3.601014e+01 0.000000e+00  3.001687e+00 4.321349e+01 0.000000e+00  -1.729561e+00 4.278116e+01 0.000000e+00  -1.599252e+00 3.040353e+01 0.000000e+00  -1.798265e+00 2.085949e+01 0.000000e+00  5.104535e-01 3.766424e+01 0.000000e+00  6.552226e-01 3.951493e+01 0.000000e+00  5.087196e+00 4.483108e+01 0.000000e+00  2.300031e+00 4.220386e+01 0.000000e+00  -1.311793e+00 1.503722e+01 0.000000e+00  6.012294e-01 1.858711e+01 0.000000e+00  3.526525e+00 2.893794e+01 0.000000e+00  1.369664e+00 3.507999e