<?xml version="1.0"?>
<VTKFile type="UnstructuredGrid"  version="0.1"  >
<UnstructuredGrid>
<Piece  NumberOfPoints="2868" NumberOfCells="5400">
<Points>
<DataArray  type="Float32"  NumberOfComponents="3"  format="ascii">0.534923 0.326073 0  0.510642 0.314196 0  0.466125 0.293082 0  0.436448 0.281205 0  0.409468 0.275927 0  0.368998 0.270648 0  0.35281 0.275927 0  0.381139 0.302319 0  0.405421 0.326073 0  0.410817 0.33531 0  0.408119 0.349826 0  0.400025 0.357744 0  0.375743 0.368301 0  0.329878 0.392055 0  0.297502 0.432963 0  0.282663 0.476511 0  0.285361 0.524018 0  0.298851 0.572845 0  0.317737 0.604516 0  0.337972 0.636187 0  0.360904 0.674457 0  0.368998 0.69953 0  0.359555 0.721964 0  0.360904 0.757594 0  0.370347 0.766831 0  0.381139 0.762872 0  0.390582 0.741758 0  0.404072 0.720644 0  0.424307 0.707448 0  0.447239 0.702169 0  0.480964 0.704808 0  0.479615 0.688973 0  0.468823 0.675776 0  0.447239 0.669178 0  0.428354 0.669178 0  0.410817 0.6639 0  0.404072 0.653343 0  0.395978 0.628269 0  0.387884 0.59132 0  0.389233 0.576804 0  0.397327 0.557009 0  0.410817 0.547772 0  0.424307 0.546452 0  0.437797 0.55305 0  0.44589 0.566247 0  0.441843 0.582082 0  0.439145 0.597918 0  0.449937 0.609795 0  0.468823 0.603196 0  0.479615 0.59 0  0.489058 0.570205 0  0.494454 0.546452 0  0.505246 0.522699 0  0.522783 0.509502 0  0.55246 0.494986 0  0.586185 0.484429 0  0.615863 0.48047 0  0.64554 0.473872 0  0.667124 0.461995 0  0.683312 0.451438 0  0.696802 0.435603 0  0.703547 0.417128 0  0.71164 0.393374 0  0.718385 0.37226 0  0.72513 0.364342 0  0.739969 0.353785 0  0.745365 0.344548 0  0.745365 0.327393 0  0.737271 0.318155 0  0.718385 0.316835 0  0.700849 0.319475 0  0.677916 0.318155 0  0.650936 0.316835 0  0.610467 0.318155 0  0.57944 0.324753 0  0.559205 0.328712 0  0.53897 0.326073 0  1 1 0  1 0 0  0 0 0  0 1 0  0.532238 0.32476 0  0.528748 0.323052 0  0.52421 0.320833 0  0.518311 0.317947 0  0.503447 0.310783 0  0.494093 0.306347 0  0.481933 0.30058 0  0.452151 0.28749 0  0.392327 0.273691 0  0.379141 0.271971 0  0.360474 0.283066 0  0.369797 0.291752 0  0.391424 0.31238 0  0.399335 0.32012 0  0.40958 0.341964 0  0.393939 0.36039 0  0.386028 0.36383 0  0.364248 0.374254 0  0.349304 0.381994 0  0.315801 0.409841 0  0.292986 0.551616 0  0.350934 0.657818 0  0.360127 0.737055 0  0.360566 0.748664 0  0.385245 0.753692 0  0.396447 0.732578 0  0.466301 0.703661 0  0.459439 0.672908 0  0.418442 0.666195 0  0.400553 0.642441 0  0.39255 0.612619 0  0.389913 0.60058 0  0.392752 0.568197 0  0.444131 0.573132 0  0.458149 0.606926 0  0.500554 0.533026 0  0.571522 0.489019 0  0.632637 0.476741 0  0.689177 0.444553 0  0.708121 0.403702 0  0.715453 0.38144 0  0.732406 0.359166 0  0.745365 0.337089 0  0.72906 0.317581 0  0.629879 0.317522 0  0.59293 0.321884 0  0.568003 0.326991 0  0.55202 0.327775 0  0.546493 0.327054 0  0.542241 0.326499 0  1 0.9 0  1 0.8 0  1 0.7 0  1 0.6 0  1 0.5 0  1 0.4 0  1 0.3 0  1 0.2 0  1 0.1 0  0.9 0 0  0.8 0 0  0.7 0 0  0.6 0 0  0.5 0 0  0.4 0 0  0.3 0 0  0.2 0 0  0.1 0 0  0.1 1 0  0.2 1 0  0.3 1 0  0.4 1 0  0.5 1 0  0.6 1 0  0.7 1 0  0.8 1 0  0.9 1 0  0 0.1 0  0 0.2 0  0 0.3 0  0 0.4 0  0 0.5 0  0 0.6 0  0 0.7 0  0 0.8 0  0 0.9 0  0.535686 0.503191 0  0.753987 0.733359 0  0.167145 0.741436 0  0.173378 0.257204 0  0.733497 0.159862 0  0.554096 0.15788 0  0.849187 0.479053 0  0.488793 0.838452 0  0.138507 0.5592 0  0.30686 0.154944 0  0.348904 0.890523 0  0.058006 0.065099 0  0.069849 0.937917 0  0.93633 0.939704 0  0.934625 0.053613 0  0.343397 0.333452 0  0.473272 0.639943 0  0.433266 0.638072 0  0.415174 0.58269 0  0.533435 0.545042 0  0.390848 0.340652 0  0.53655 0.320242 0  0.127966 0.393775 0  0.83861 0.850455 0  0.635242 0.85513 0  0.852158 0.633441 0  0.653427 0.626848 0  0.861226 0.24292 0  0.166128 0.12976 0  0.216875 0.869871 0  0.458305 0.11179 0  0.84446 0.101633 0  0.202024 0.642528 0  0.644825 0.115855 0  0.671342 0.218358 0  0.251354 0.286186 0  0.262388 0.75153 0  0.063044 0.751571 0  0.068189 0.242962 0  0.435781 0.905395 0  0.934144 0.451133 0  0.568393 0.237622 0  0.814984 0.395506 0  0.752951 0.517227 0  0.456254 0.780699 0  0.073352 0.531116 0  0.337731 0.206071 0  0.363213 0.960371 0  0.330742 0.363592 0  0.516613 0.55705 0  0.369057 0.332992 0  0.500926 0.617309 0  0.498004 0.665534 0  0.412142 0.61178 0  0.454233 0.636604 0  0.422782 0.567496 0  0.541193 0.52148 0  0.439761 0.65557 0  0.5163 0.533672 0  0.414775 0.64562 0  0.40073 0.576135 0  0.430362 0.588034 0  0.385432 0.351492 0  0.400298 0.335397 0  0.398325 0.348194 0  0.528702 0.314885 0  0.540814 0.322334 0  0.534477 0.322953 0  0.619095 0.743583 0  0.885162 0.737972 0  0.08076 0.668849 0  0.90734 0.36634 0  0.094687 0.868937 0  0.759838 0.912152 0  0.901518 0.540898 0  0.747285 0.607479 0  0.229182 0.071641 0  0.069154 0.450091 0  0.244775 0.203309 0  0.076534 0.331755 0  0.897847 0.167826 0  0.578909 0.911415 0  0.077133 0.146341 0  0.477215 0.203448 0  0.922631 0.869341 0  0.517415 0.074785 0  0.297026 0.827793 0  0.783271 0.246505 0  0.74519 0.061079 0  0.36033 0.069068 0  0.210313 0.475228 0  0.859426 0.928758 0  0.574548 0.609182 0  0.243069 0.383398 0  0.283099 0.934598 0  0.417416 0.843141 0  0.643942 0.553164 0  0.112687 0.079336 0  0.281357 0.658386 0  0.765043 0.436177 0  0.611361 0.198486 0  0.234496 0.58911 0  0.206479 0.702638 0  0.679608 0.155818 0  0.62682 0.259978 0  0.690538 0.264164 0  0.448938 0.956308 0  0.808154 0.328403 0  0.379583 0.91913 0  0.308083 0.297769 0  0.312358 0.730249 0  0.563101 0.278576 0  0.435597 0.746198 0  0.385475 0.225229 0  0.572248 0.518034 0  0.357864 0.35422 0  0.497647 0.641694 0  0.458101 0.655768 0  0.360474 0.310727 0  0.467038 0.620139 0  0.47798 0.659909 0  0.41102 0.628072 0  0.48324 0.609015 0  0.427544 0.617941 0  0.388633 0.328253 0  0.405336 0.599404 0  0.408351 0.565178 0  0.42395 0.600985 0  0.431562 0.576523 0  0.424905 0.655198 0  0.398064 0.58782 0  0.427739 0.557934 0  0.519291 0.303443 0  0.53142 0.320293 0  0.5449 0.323642 0  0.537166 0.323513 0  0.153974 0.920841 0  0.918186 0.67343 0  0.759946 0.820588 0  0.537526 0.783091 0  0.816532 0.545843 0  0.813991 0.178083 0  0.836774 0.702023 0  0.149815 0.318856 0  0.662287 0.923338 0  0.680146 0.791192 0  0.708961 0.663172 0  0.937278 0.287318 0  0.574622 0.688166 0  0.589474 0.076262 0  0.502822 0.926683 0  0.222269 0.811068 0  0.380457 0.164786 0  0.15321 0.684154 0  0.458063 0.051413 0  0.161702 0.056026 0  0.199351 0.198818 0  0.298946 0.095532 0  0.902465 0.795949 0  0.121139 0.791477 0  0.906269 0.112287 0  0.056109 0.822332 0  0.512172 0.13237 0  0.940964 0.741805 0  0.888887 0.408777 0  0.354543 0.825964 0  0.808736 0.068638 0  0.068507 0.394071 0  0.719105 0.563843 0  0.247287 0.149664 0  0.293062 0.237128 0  0.240524 0.434997 0  0.141255 0.623289 0  0.945202 0.160621 0  0.502914 0.247629 0  0.144669 0.480811 0  0.665025 0.060817 0  0.728047 0.224344 0  0.861995 0.313312 0  0.200068 0.534235 0  0.253262 0.965623 0  0.893804 0.49307 0  0.604391 0.572456 0  0.947088 0.345347 0  0.439372 0.227307 0  0.629847 0.159823 0  0.273405 0.880181 0  0.302744 0.776823 0  0.781502 0.295365 0  0.275342 0.349602 0  0.728385 0.472798 0  0.229136 0.246478 0  0.807794 0.480346 0  0.709476 0.112786 0  0.275506 0.694991 0  0.771674 0.394419 0  0.449715 0.861802 0  0.419159 0.799696 0  0.674851 0.503139 0  0.280443 0.61016 0  0.572443 0.192538 0  0.393113 0.87525 0  0.405555 0.948428 0  0.330942 0.934103 0  0.540509 0.597101 0  0.312763 0.668931 0  0.254368 0.540179 0  0.595265 0.25915 0  0.606679 0.234099 0  0.657131 0.279138 0  0.722458 0.279478 0  0.333 0.308056 0  0.351529 0.246142 0  0.455714 0.725794 0  0.585239 0.295143 0  0.340062 0.72492 0  0.545593 0.293773 0  0.555449 0.545426 0  0.414311 0.737314 0  0.590854 0.502323 0  0.350507 0.368444 0  0.484423 0.625665 0  0.483899 0.674542 0  0.378137 0.317274 0  0.446416 0.646404 0  0.373532 0.347654 0  0.446876 0.619769 0  0.466106 0.666068 0  0.437545 0.609254 0  0.434988 0.565726 0  0.41462 0.656829 0  0.418803 0.556961 0  0.398425 0.327446 0  0.517803 0.310421 0  0.549516 0.322918 0  0.57701 0.842889 0  0.829127 0.773906 0  0.643235 0.684732 0  0.134281 0.207734 0  0.865997 0.055966 0  0.680959 0.723345 0  0.165229 0.841555 0  0.54558 0.959672 0  0.783726 0.656439 0  0.913315 0.595533 0  0.699439 0.860667 0  0.785839 0.125076 0  0.551673 0.037713 0  0.920097 0.223214 0  0.206406 0.299726 0  0.087064 0.596401 0  0.935644 0.394252 0  0.964557 0.252582 0  0.230124 0.928346 0  0.120579 0.271764 0  0.857215 0.524082 0  0.767098 0.555147 0  0.936094 0.507131 0  0.804064 0.59585 0  0.700565 0.608273 0  0.429773 0.174231 0  0.117746 0.727333 0  0.538962 0.730231 0  0.862761 0.359173 0  0.821444 0.284046 0  0.193552 0.35818 0  0.234923 0.505555 0  0.193209 0.421217 0  0.220144 0.755896 0  0.594015 0.131642 0  0.283813 0.195855 0  0.517519 0.213961 0  0.553509 0.639116 0  0.280391 0.378018 0  0.852183 0.436817 0  0.746983 0.197173 0  0.821806 0.221318 0  0.449853 0.828453 0  0.883758 0.453926 0  0.183484 0.589542 0  0.348384 0.129314 0  0.255254 0.838525 0  0.504849 0.798516 0  0.320344 0.863432 0  0.611669 0.525425 0  0.265864 0.804962 0  0.72056 0.521442 0  0.613372 0.610122 0  0.481262 0.881068 0  0.655778 0.191988 0  0.701921 0.196918 0  0.565826 0.573181 0  0.46914 0.240927 0  0.343219 0.173284 0  0.888786 0.278502 0  0.244113 0.675093 0  0.739546 0.417914 0  0.784023 0.355942 0  0.326805 0.265549 0  0.248616 0.634948 0  0.789183 0.413964 0  0.764107 0.476606 0  0.32086 0.698956 0  0.334735 0.791464 0  0.53448 0.258468 0  0.395208 0.824575 0  0.309962 0.638947 0  0.263264 0.22712 0  0.756395 0.267254 0  0.639281 0.224663 0  0.358631 0.85116 0  0.309751 0.332089 0  0.663461 0.246436 0  0.424083 0.871774 0  0.269645 0.445719 0  0.272183 0.572741 0  0.624492 0.294638 0  0.717827 0.250266 0  0.408215 0.763744 0  0.485997 0.274924 0  0.288138 0.274311 0  0.410524 0.242487 0  0.741513 0.385737 0  0.691284 0.483519 0  0.515531 0.581849 0  0.463005 0.753402 0  0.681919 0.
[...]
<PointData  Vectors="u"> 
<DataArray  type="Float32"  Name="u"  NumberOfComponents="3" format="ascii">7.408323e-04 3.595343e-02 0.000000e+00  9.517359e-04 3.699688e-02 0.000000e+00  1.392000e-03 3.874292e-02 0.000000e+00  1.525788e-03 4.008657e-02 0.000000e+00  1.580827e-03 4.153598e-02 0.000000e+00  1.563893e-03 4.443445e-02 0.000000e+00  1.941486e-03 4.691221e-02 0.000000e+00  2.278627e-03 4.978003e-02 0.000000e+00  2.948216e-03 5.037273e-02 0.000000e+00  3.139479e-03 5.037433e-02 0.000000e+00  3.385092e-03 5.037211e-02 0.000000e+00  3.476670e-03 5.030817e-02 0.000000e+00  3.548017e-03 4.970808e-02 0.000000e+00  3.159463e-03 4.867164e-02 0.000000e+00  2.085010e-03 4.890088e-02 0.000000e+00  8.236763e-04 4.976541e-02 0.000000e+00  -5.834649e-04 5.097060e-02 0.000000e+00  -1.934338e-03 5.238896e-02 0.000000e+00  -2.751052e-03 5.347301e-02 0.000000e+00  -3.321960e-03 5.438979e-02 0.000000e+00  -3.713417e-03 5.514654e-02 0.000000e+00  -3.841909e-03 5.536720e-02 0.000000e+00  -3.954595e-03 5.559314e-02 0.000000e+00  -4.556890e-03 5.656122e-02 0.000000e+00  -5.098909e-03 5.754935e-02 0.000000e+00  -5.566804e-03 5.859531e-02 0.000000e+00  -5.953691e-03 5.974113e-02 0.000000e+00  -5.836500e-03 6.059388e-02 0.000000e+00  -5.561897e-03 6.157929e-02 0.000000e+00  -5.300590e-03 6.292927e-02 0.000000e+00  -4.825199e-03 6.831326e-02 0.000000e+00  -4.897489e-03 7.439174e-02 0.000000e+00  -4.876345e-03 8.036845e-02 0.000000e+00  -5.322332e-03 8.671711e-02 0.000000e+00  -5.878850e-03 9.010946e-02 0.000000e+00  -6.579549e-03 9.205257e-02 0.000000e+00  -7.228478e-03 9.288390e-02 0.000000e+00  -9.053522e-03 9.488897e-02 0.000000e+00  -1.172355e-02 9.699218e-02 0.000000e+00  -1.221946e-02 9.726642e-02 0.000000e+00  -1.248175e-02 9.752375e-02 0.000000e+00  -1.244516e-02 9.770924e-02 0.000000e+00  -1.238385e-02 9.783479e-02 0.000000e+00  -1.221465e-02 9.782464e-02 0.000000e+00  -1.171499e-02 9.764449e-02 0.000000e+00  -1.053310e-02 9.735327e-02 0.000000e+00  -8.026220e-03 9.610025e-02 0.000000e+00  -3.298583e-03 9.241968e-02 0.000000e+00  2.608035e-03 8.821823e-02 0.000000e+00  7.307269e-03 8.576444e-02 0.000000e+00  1.168662e-02 8.330108e-02 0.000000e+00  1.432938e-02 8.109199e-02 0.000000e+00  1.477848e-02 7.900538e-02 0.000000e+00  1.424555e-02 7.635394e-02 0.000000e+00  1.301035e-02 7.013107e-02 0.000000e+00  1.168977e-02 6.198121e-02 0.000000e+00  1.096057e-02 5.418835e-02 0.000000e+00  1.004726e-02 4.560226e-02 0.000000e+00  8.923449e-03 3.920038e-02 0.000000e+00  8.001362e-03 3.453399e-02 0.000000e+00  6.905945e-03 3.014947e-02 0.000000e+00  5.944332e-03 2.729282e-02 0.000000e+00  4.758645e-03 2.481972e-02 0.000000e+00  3.821397e-03 2.335411e-02 0.000000e+00  3.422826e-03 2.273620e-02 0.000000e+00  2.680167e-03 2.114411e-02 0.000000e+00  2.124842e-03 2.016790e-02 0.000000e+00  1.257113e-03 1.959455e-02 0.000000e+00  7.418667e-04 2.012445e-02 0.000000e+00  4.410570e-04 2.162542e-02 0.000000e+00  3.676683e-04 2.293228e-02 0.000000e+00  2.241796e-04 2.462291e-02 0.000000e+00  7.299851e-05 2.681883e-02 0.000000e+00  3.230549e-05 3.038224e-02 0.000000e+00  3.076540e-04 3.313012e-02 0.000000e+00  5.525815e-04 3.460694e-02 0.000000e+00  7.090779e-04 3.577047e-02 0.000000e+00  0.000000e+00 0.000000e+00 0.000000e+00  0.000000e+00 0.000000e+00 0.000000e+00  4.690178e-03 4.825999e-02 0.000000e+00  -2.084205e-03 5.431211e-02 0.000000e+00  7.484965e-04 3.606017e-02 0.000000e+00  7.700438e-04 3.621390e-02 0.000000e+00  8.077687e-04 3.641551e-02 0.000000e+00  8.663389e-04 3.667290e-02 0.000000e+00  1.034729e-03 3.728883e-02 0.000000e+00  1.139566e-03 3.765388e-02 0.000000e+00  1.262518e-03 3.811773e-02 0.000000e+00  1.470410e-03 3.933506e-02 0.000000e+00  1.588959e-03 4.257765e-02 0.000000e+00  1.577734e-03 4.350431e-02 0.000000e+00  1.863068e-03 4.842312e-02 0.000000e+00  2.023371e-03 4.918030e-02 0.000000e+00  2.559052e-03 5.014518e-02 0.000000e+00  2.788558e-03 5.031679e-02 0.000000e+00  3.257182e-03 5.037444e-02 0.000000e+00  3.503910e-03 5.020549e-02 0.000000e+00  3.533123e-03 5.001030e-02 0.000000e+00  3.525049e-03 4.936448e-02 0.000000e+00  3.426739e-03 4.898053e-02 0.000000e+00  2.734224e-03 4.864735e-02 0.000000e+00  -1.377348e-03 5.175837e-02 0.000000e+00  -3.573105e-03 5.487149e-02 0.000000e+00  -4.157927e-03 5.589992e-02 0.000000e+00  -4.353768e-03 5.618811e-02 0.000000e+00  -5.858810e-03 5.921897e-02 0.000000e+00  -5.937372e-03 6.013569e-02 0.000000e+00  -5.153617e-03 6.467103e-02 0.000000e+00  -4.947094e-03 8.355258e-02 0.000000e+00  -6.284994e-03 9.135407e-02 0.000000e+00  -7.946606e-03 9.370763e-02 0.000000e+00  -1.031562e-02 9.600199e-02 0.000000e+00  -1.120887e-02 9.666764e-02 0.000000e+00  -1.238793e-02 9.739011e-02 0.000000e+00  -1.134409e-02 9.758377e-02 0.000000e+00  -5.185624e-04 9.065165e-02 0.000000e+00  1.479756e-02 7.987419e-02 0.000000e+00  1.225607e-02 6.560578e-02 0.000000e+00  1.045662e-02 4.942894e-02 0.000000e+00  7.554070e-03 3.255546e-02 0.000000e+00  5.264199e-03 2.579392e-02 0.000000e+00  4.206848e-03 2.388899e-02 0.000000e+00  3.084770e-03 2.205216e-02 0.000000e+00  1.757820e-03 1.977312e-02 0.000000e+00  5.744180e-04 2.077947e-02 0.000000e+00  2.689330e-05 2.863054e-02 0.000000e+00  1.625843e-04 3.198819e-02 0.000000e+00  4.479085e-04 3.402023e-02 0.000000e+00  5.983873e-04 3.502626e-02 0.000000e+00  6.424283e-04 3.535340e-02 0.000000e+00  6.790792e-04 3.559347e-02 0.000000e+00  0.000000e+00 0.000000e+00 0.000000e+00  0.000000e+00 0.000000e+00 0.000000e+00  0.000000e+00 0.000000e+00 0.000000e+00  0.000000e+00 0.000000e+00 0.000000e+00  0.000000e+00 0.000000e+00 0.000000e+00  0.000000e+00 0.000000e+00 0.000000e+00  0.000000e+00 0.000000e+00 0.000000e+00  0.000000e+00 0.000000e+00 0.000000e+00  0.000000e+00 0.000000e+00 0.000000e+00  8.697239e-05 7.714096e-03 0.000000e+00  2.580590e-04 1.533166e-02 0.000000e+00  5.459548e-04 2.263304e-02 0.000000e+00  9.830864e-04 2.938584e-02 0.000000e+00  1.566031e-03 3.534754e-02 0.000000e+00  2.277589e-03 4.034059e-02 0.000000e+00  3.108431e-03 4.413091e-02 0.000000e+00  3.895879e-03 4.654784e-02 0.000000e+00  4.450173e-03 4.781007e-02 0.000000e+00  -2.309178e-03 5.478970e-02 0.000000e+00  -2.684930e-03 5.582472e-02 0.000000e+00  -2.929052e-03 5.711930e-02 0.000000e+00  -2.605879e-03 5.789496e-02 0.000000e+00  -1.470579e-03 5.648795e-02 0.000000e+00  -3.849410e-05 5.130999e-02 0.000000e+00  8.428670e-04 4.224789e-02 0.000000e+00  8.870652e-04 3.032603e-02 0.000000e+00  4.241252e-04 1.636303e-02 0.000000e+00  5.057732e-03 4.846764e-02 0.000000e+00  5.536261e-03 4.884620e-02 0.000000e+00  5.598841e-03 4.931116e-02 0.000000e+00  4.946698e-03 4.989404e-02 0.000000e+00  3.632778e-03 5.066553e-02 0.000000e+00  2.006784e-03 5.161140e-02 0.000000e+00  4.586811e-04 5.259493e-02 0.000000e+00  -7.899519e-04 5.344673e-02 0.000000e+00  -1.664377e-03 5.404771e-02 0.000000e+00  1.376254e-02 7.388213e-02 0.000000e+00  4.426444e-03 3.417860e-02 0.000000e+00  -1.707576e-03 5.360338e-02 0.000000e+00  4.815620e-03 4.865960e-02 0.000000e+00  2.392096e-04 2.068287e-02 0.000000e+00  1.027200e-03 3.319835e-02 0.000000e+00  1.308011e-03 1.425914e-02 0.000000e+00  -2.227079e-03 6.006619e-02 0.000000e+00  1.211201e-03 5.115308e-02 0.000000e+00  3.113087e-03 4.549874e-02 0.000000e+00  -3.526651e-03 5.784219e-02 0.000000e+00  4.720904e-03 4.827776e-02 0.000000e+00  -2.125989e-03 5.437512e-02 0.000000e+00  2.158011e-04 1.046268e-02 0.000000e+00  3.525979e-05 5.091165e-03 0.000000e+00  3.327510e-03 4.884634e-02 0.000000e+00  -1.940882e-03 8.282096e-02 0.000000e+00  -5.611855e-03 9.109501e-02 0.000000e+00  -1.139136e-02 9.725003e-02 0.000000e+00  1.262460e-02 7.596193e-02 0.000000e+00  3.239164e-03 5.012786e-02 0.000000e+00  7.565576e-04 3.584202e-02 0.000000e+00  4.181849e-03 4.959575e-02 0.000000e+00  1.403377e-03 2.404233e-02 0.000000e+00  1.818807e-03 5.028014e-02 0.000000e+00  2.502154e-03 1.740089e-02 0.000000e+00  8.713390e-03 4.900756e-02 0.000000e+00  -8.661306e-05 1.102587e-02 0.000000e+00  4.451136e-03 4.790183e-02 0.000000e+00  -2.821707e-03 5.537633e-02 0.000000e+00  1.725637e-03 3.832477e-02 0.000000e+00  9.787825e-05 1.213796e-02 0.000000e+00  -1.089404e-03 5.259656e-02 0.000000e+00  6.085628e-04 2.695933e-02 0.000000e+00  2.615403e-04 2.538653e-02 0.000000e+00  4.303304e-03 4.829730e-02 0.000000e+00  -2.882670e-03 5.478683e-02 0.000000e+00  -7.766030e-04 5.314449e-02 0.000000e+00  5.327105e-03 4.898261e-02 0.000000e+00  -2.802416e-03 5.884345e-02 0.000000e+00  1.834960e-05 5.019011e-03 0.000000e+00  7.107699e-04 3.294920e-02 0.000000e+00  8.644515e-04 1.635185e-02 0.000000e+00  4.669373e-03 2.693832e-02 0.000000e+00  -3.986953e-03 6.173817e-02 0.000000e+00  2.443997e-03 5.088894e-02 0.000000e+00  2.614217e-03 4.520732e-02 0.000000e+00  -2.934170e-03 5.791999e-02 0.000000e+00  3.439605e-03 4.879455e-02 0.000000e+00  1.216434e-02 7.927420e-02 0.000000e+00  3.129542e-03 4.951420e-02 0.000000e+00  3.174858e-03 8.020057e-02 0.000000e+00  -3.427553e-04 7.506087e-02 0.000000e+00  -9.029522e-03 9.560257e-02 0.000000e+00  -3.604089e-03 8.722968e-02 0.000000e+00  -1.201979e-02 9.760927e-02 0.000000e+00  1.329821e-02 7.359139e-02 0.000000e+00  -5.410212e-03 8.880928e-02 0.000000e+00  1.393466e-02 7.833947e-02 0.000000e+00  -6.874503e-03 9.267899e-02 0.000000e+00  -1.206716e-02 9.735485e-02 0.000000e+00  -1.033801e-02 9.701694e-02 0.000000e+00  3.416684e-03 4.999756e-02 0.000000e+00  3.133461e-03 5.030203e-02 0.000000e+00  3.367354e-03 5.027570e-02 0.000000e+00  8.504490e-04 3.618105e-02 0.000000e+00  7.077835e-04 3.563748e-02 0.000000e+00  7.563467e-04 3.595955e-02 0.000000e+00  4.681379e-03 5.433120e-02 0.000000e+00  1.371806e-03 1.555944e-02 0.000000e+00  9.879923e-05 5.237045e-02 0.000000e+00  -1.904774e-04 7.459566e-03 0.000000e+00  -1.972964e-03 5.417403e-02 0.000000e+00  1.437789e-03 3.526796e-02 0.000000e+00  1.198344e-03 9.353014e-03 0.000000e+00  5.946799e-03 3.145969e-02 0.000000e+00  3.772859e-03 4.653941e-02 0.000000e+00  3.817575e-03 5.017259e-02 0.000000e+00  4.097142e-03 4.755987e-02 0.000000e+00  5.060374e-03 4.939562e-02 0.000000e+00  -2.497036e-05 8.028166e-03 0.000000e+00  1.050228e-05 5.413843e-02 0.000000e+00  4.996371e-03 4.853188e-02 0.000000e+00  1.505262e-03 3.785757e-02 0.000000e+00  3.765910e-04 1.206835e-02 0.000000e+00  1.399374e-03 3.484245e-02 0.000000e+00  -3.587095e-03 5.630132e-02 0.000000e+00  1.835156e-04 1.714007e-02 0.000000e+00  3.569098e-04 1.956263e-02 0.000000e+00  2.561530e-03 4.259344e-02 0.000000e+00  2.024764e-03 5.000325e-02 0.000000e+00  7.510368e-04 2.184321e-02 0.000000e+00  8.837215e-03 6.618270e-02 0.000000e+00  3.566007e-03 4.898622e-02 0.000000e+00  -3.072763e-03 5.677603e-02 0.000000e+00  -3.800338e-03 5.949712e-02 0.000000e+00  9.950284e-03 4.926250e-02 0.000000e+00  4.554134e-03 4.806192e-02 0.000000e+00  -2.551777e-03 5.380055e-02 0.000000e+00  2.622914e-03 2.233811e-02 0.000000e+00  5.285773e-04 2.969710e-02 0.000000e+00  -8.331256e-04 5.194701e-02 0.000000e+00  -1.824401e-03 5.349705e-02 0.000000e+00  3.808462e-04 2.463647e-02 0.000000e+00  2.031727e-04 2.883863e-02 0.000000e+00  2.352444e-04 2.392437e-02 0.000000e+00  -2.256213e-03 5.811878e-02 0.000000e+00  4.370125e-04 1.587179e-02 0.000000e+00  -3.176817e-03 5.828436e-02 0.000000e+00  3.704706e-03 4.802289e-02 0.000000e+00  -3.360368e-03 5.526455e-02 0.000000e+00  6.195989e-04 3.375383e-02 0.000000e+00  -5.133430e-03 6.163437e-02 0.000000e+00  1.802808e-03 4.291099e-02 0.000000e+00  1.220774e-02 6.648452e-02 0.000000e+00  3.429582e-03 4.926338e-02 0.000000e+00  7.360876e-04 7.807212e-02 0.000000e+00  -4.367392e-03 8.478368e-02 0.000000e+00  2.718589e-03 4.901269e-02 0.000000e+00  -8.860169e-04 8.630377e-02 0.000000e+00  -2.720989e-03 7.956473e-02 0.000000e+00  -7.933574e-03 9.426140e-02 0.000000e+00  2.625175e-03 8.423434e-02 0.000000e+00  -6.892415e-03 9.410448e-02 0.000000e+00  2.974849e-03 5.006929e-02 0.000000e+00  -1.054927e-02 9.656659e-02 0.000000e+00  -1.228975e-02 9.756312e-02 0.000000e+00  -9.138100e-03 9.622538e-02 0.000000e+00  -1.135437e-02 9.743611e-02 0.000000e+00  -6.123714e-03 9.110936e-02 0.000000e+00  -1.160965e-02 9.707299e-02 0.000000e+00  -1.222980e-02 9.775753e-02 0.000000e+00  1.014485e-03 3.654059e-02 0.000000e+00  7.898727e-04 3.608481e-02 0.000000e+00  6.672819e-04 3.541844e-02 0.000000e+00  7.340941e-04 3.583931e-02 0.000000e+00  -2.471141e-03 5.495103e-02 0.000000e+00  8.813504e-04 9.886022e-03 0.000000e+00  2.731366e-03 3.466939e-02 0.000000e+00  1.160283e-04 6.105228e-02 0.000000e+00  2.982143e-03 1.951899e-02 0.000000e+00  6.096766e-05 1.461672e-02 0.000000e+00  2.713002e-03 2.138887e-02 0.000000e+00  4.768587e-03 4.909141e-02 0.000000e+00  1.064357e-03 4.668872e-02 0.000000e+00  3.813435e-03 4.547084e-02 0.000000e+00  6.768782e-03 3.962460e-02 0.000000e+00  -2.047825e-04 4.743079e-03 0.000000e+00  5.354202e-03 6.261290e-02 0.000000e+00  9.684871e-04 3.046381e-02 0.000000e+00  -1.538733e-03 5.756482e-02 0.000000e+00  -2.740207e-03 5.491730e-02 0.000000e+00  2.163511e-03 4.262899e-02 0.000000e+00  -9.421782e-04 5.283089e-02 0.000000e+00  1.817113e-03 3.792804e-02 0.000000e+00  4.218022e-03 4.748018e-02 0.000000e+00  4.500205e-03 4.807226e-02 0.000000e+00  3.155055e-03 4.503791e-02 0.000000e+00  8.220365e-04 1.416182e-02 0.000000e+00  -1.671627e-03 5.376162e-02 0.000000e+00  2.378141e-05 7.344448e-03 0.000000e+00  -1.406734e-03 5.369305e-02 0.000000e+00  1.350444e-03 3.550993e-02 0.000000e+00  4.106826e-04 8.021136e-03 0.000000e+00  1.295939e-04 9.374604e-03 0.000000e+00  -4.218669e-03 5.775564e-02 0.000000e+00  1.965969e-04 1.481855e-02 0.000000e+00  4.559740e-03 4.977475e-02 0.000000e+00  6.871559e-03 3.432189e-02 0.000000e+00  3.839039e-03 4.692174e-02 0.000000e+00  3.616095e-03 4.721183e-02 0.000000e+00  2.591584e-03 4.942324e-02 0.000000e+00  6.435421e-05 5.199122e-02 0.000000e+00  -1.368644e-05 4.300591e-03 0.000000e+00  1.344072e-03 3.683293e-02 0.000000e+00  2.638671e-03 5.024496e-02 0.000000e+00  6.311393e-04 2.532105e-02 0.000000e+00  2.246792e-04 2.118609e-02 0.000000e+00  -1.059133e-04 1.124665e-02 0.000000e+00  8.540068e-04 5.084314e-02 0.000000e+00  -2.889609e-03 5.641865e-02 0.000000e+00  8.974830e-04 9.660655e-03 0.000000e+00  1.058121e-02 5.942480e-02 0.000000e+00  -3.490933e-04 3.791483e-03 0.000000e+00  1.631313e-03 3.988322e-02 0.000000e+00  5.598661e-04 2.820282e-02 0.000000e+00  -3.239225e-03 5.633583e-02 0.000000e+00  -3.547710e-03 5.572800e-02 0.000000e+00  4.604092e-04 1.749857e-02 0.000000e+00  3.809958e-03 4.862188e-02 0.000000e+00  4.878520e-03 2.837386e-02 0.000000e+00  4.425725e-03 4.816799e-02 0.000000e+00  2.154821e-03 1.885177e-02 0.000000e+00  3.792758e-04 2.233367e-02 0.000000e+00  -2.701274e-03 5.426156e-02 0.000000e+00  1.907485e-03 2.030159e-02 0.000000e+00  -3.028004e-03 5.959274e-02 0.000000e+00  -4.442099e-03 6.011823e-02 0.000000e+00  8.434539e-03 3.985789e-02 0.000000e+00  -2.067007e-03 5.290706e-02 0.000000e+00  8.129292e-04 3.229414e-02 0.000000e+00  -3.590094e-03 5.873261e-02 0.000000e+00  -2.758038e-03 5.830693e-02 0.000000e+00  -3.160479e-03 5.754494e-02 0.000000e+00  8.232094e-03 7.412896e-02 0.000000e+00  -3.100679e-03 5.446426e-02 0.000000e+00  -2.469891e-04 5.112540e-02 0.000000e+00  3.757679e-04 3.125745e-02 0.000000e+00  4.137049e-04 3.024220e-02 0.000000e+00  1.381274e-04 2.644370e-02 0.000000e+00  3.632368e-04 2.154141e-02 0.000000e+00  3.270481e-03 4.826123e-02 0.000000e+00  2.168910e-03 4.545176e-02 0.000000e+00  -5.090649e-03 6.330061e-02 0.000000e+00  2.983036e-04 3.234758e-02 0.000000e+00  -3.688588e-03 5.556079e-02 0.000000e+00  7.849822e-04 3.505310e-02 0.000000e+00  1.205741e-02 7.126116e-02 0.000000e+00  -5.567927e-03 6.072446e-02 0.000000e+00  1.163565e-02 6.136223e-02 0.000000e+00  3.459057e-03 4.907858e-02 0.000000e+00  4.982531e-04 8.223961e-02 0.000000e+00  -2.741693e-03 7.624486e-02 0.000000e+00  2.720036e-03 4.973046e-02 0.000000e+00  -4.741321e-03 8.804897e-02 0.000000e+00  3.361221e-03 4.967531e-02 0.000000e+00  -3.775902e-03 9.089720e-02 0.000000e+00  -4.362084e-03 8.196329e-02 0.000000e+00  -6.270584e-03 9.443930e-02 0.000000e+00  -1.188660e-02 9.766116e-02 0.000000e+00  -6.587280e-03 9.207669e-02 0.000000e+00  -1.234021e-02 9.772265e-02 0.000000e+00  2.960616e-03 5.028081e-02 0.000000e+00  9.614611e-04 3.665873e-02 0.000000e+00  6.317672e-04 3.514078e-02 0.000000e+00  7.423981e-04 5.591827e-02 0.000000e+00  2.278861e-03 2.415329e-02 0.000000e+00  7.111023e-03 5.130112e-02 0.000000e+00  4.946770e-03 4.860247e-02 0.000000e+00  1.112372e-04 1.041136e-02 0.000000e+00  5.778006e-03 4.521454e-02 0.000000e+00  -2.342837e-03 5.454307e-02 0.000000e+00  -7.760599e-04 5.526005e-02 0.000000e+00  4.554733e-03 2.762509e-02 0.000000e+00  1.045639e-03 8.935427e-03 0.000000e+00  2.246497e-03 4.283579e-02 0.000000e+00  1.713178e-04 1.667211e-02 0.000000e+00  1.231842e-03 3.259800e-02 0.000000e+00  -9.186472e-05 6.244399e-03 0.000000e+00  4.568526e-03 4.869705e-02 0.000000e+00  1.163852e-03 5.157674e-02 0.000000e+00  4.528002e-05 4.769725e-03 0.000000e+00  -5.542843e-05 2.673659e-03 0.000000e+00  -2.867224e-03 5.593496e-02 0.000000e+00  5.074561e-03 4.897895e-02 0.000000e+00  1.768039e-03 1.413999e-02 0.000000e+00  4.759542e-03 2.642800e-02 0.000000e+00  7.663094e-04 5.181581e-03 0.000000e+00  3.853963e-03 2.270312e-02 0.000000e+00  7.691585e-03 3.941584e-02 0.000000e+00  1.770350e-03 4.018901e-02 0.000000e+00  -1.036909e-03 5.312463e-02 0.000000e+00  1.554004e-03 6.438475e-02 0.000000e+00  1.763706e-05 1.150677e-02 0.000000e+00  1.087186e-04 1.440941e-02 0.000000e+00  4.211101e-03 4.908960e-02 0.000000e+00  9.478083e-04 5.040800e-02 0.000000e+00  3.297639e-03 4.952141e-02 0.000000e+00  -2.416321e-03 5.429443e-02 0.000000e+00  8.291281e-04 3.048153e-02 0.000000e+00  3.553296e-03 4.673692e-02 0.000000e+00  1.234261e-03 3.578466e-02 0.000000e+00  6.202022e-03 6.894544e-02 0.000000e+00  3.417847e-03 4.876932e-02 0.000000e+00  7.202550e-04 1.332214e-02 0.000000e+00  1.880122e-04 1.974668e-02 0.000000e+00  2.734950e-05 1.410683e-02 0.000000e+00  -3.430715e-03 6.031118e-02 0.000000e+00  5.293531e-04 1.028415e-02 0.000000e+00  2.727680e-05 5.165915e-02 0.000000e+00  2.602852e-03 4.367017e-02 0.000000e+00  -3.138625e-03 5.566887e-02 0.000000e+00  -1.735568e-03 6.142471e-02 0.000000e+00  -3.652887e-03 5.713622e-02 0.000000e+00  1.106055e-02 5.657055e-02 0.000000e+00  -3.192326e-03 5.547431e-02 0.000000e+00  6.227572e-03 3.209719e-02 0.000000e+00  9.459838e-03 5.741587e-02 0.000000e+00  -2.176206e-03 5.900532e-02 0.000000e+00  3.613664e-04 2.647709e-02 0.000000e+00  2.546815e-04 2.309297e-02 0.000000e+00  1.060285e-02 6.898582e-02 0.000000e+00  1.545848e-03 3.843566e-02 0.000000e+00  2.587314e-03 4.443367e-02 0.000000e+00  -1.943347e-04 8.824308e-03 0.000000e+00  -2.100882e-03 5.353837e-02 0.000000e+00  3.430296e-03 2.420919e-02 0.000000e+00  1.103681e-03 1.820034e-02 0.000000e+00  3.113224e-03 4.716036e-02 0.000000e+00  -1.766277e-03 5.293798e-02 0.000000e+00  1.616876e-03 1.921652e-02 0.000000e+00  3.383108e-03 2.386933e-02 0.000000e+00  -3.325404e-03 5.499377e-02 0.000000e+00  -4.142816e-03 5.665791e-02 0.000000e+00  1.022498e-03 3.526945e-02 0.000000e+00  -4.284420e-03 5.909431e-02 0.000000e+00  -2.893398e-03 5.394851e-02 0.000000e+00  3.995969e-03 4.756503e-02 0.000000e+00  3.402685e-04 1.915049e-02 0.000000e+00  3.070101e-04 2.778841e-02 0.000000e+00  -3.959594e-03 5.799848e-02 0.000000e+00  3.670147e-03 4.846420e-02 0.000000e+00  2.087881e-04 2.599484e-02 0.000000e+00  -3.330890e-03 5.922901e-02 0.000000e+00  1.999340e-03 4.936178e-02 0.000000e+00  -1.302602e-03 5.199114e-02 0.000000e+00  6.644704e-05 2.909831e-02 0.000000e+00  2.630519e-04 2.193499e-02 0.000000e+00  -5.195498e-03 6.009295e-02 0.000000e+00  1.425984e-03 3.782210e-02 0.000000e+00  3.913299e-03 4.785324e-02 0.000000e+00  1.639568e-03 4.146430e-02 0.000000e+00  2.992014e-03 2.252003e-02 0.000000e+00  7.298779e-03 3.523586e-02 0.000000e+00  9.033049e-03 7.970731e-02 0.000000e+00  -4.289850e-03 6.296581e-02 0.000000e+00  2.237929e-04 2.