<?xml version="1.0"?>
<VTKFile type="UnstructuredGrid"  version="0.1"  >
<UnstructuredGrid>
<Piece  NumberOfPoints="525" NumberOfCells="924">
<Points>
<DataArray  type="Float32"  NumberOfComponents="3"  format="ascii">0 0 0  2.2 0 0  2.2 0.41 0  0 0.41 0  0.15 0.2 0  0.25 0.2 0  0.2 0.15 0  0.2 0.25 0  0.104762 0 0  0.209524 0 0  0.314286 0 0  0.419048 0 0  0.52381 0 0  0.628571 0 0  0.733333 0 0  0.838095 0 0  0.942857 0 0  1.04762 0 0  1.15238 0 0  1.25714 0 0  1.3619 0 0  1.46667 0 0  1.57143 0 0  1.67619 0 0  1.78095 0 0  1.88571 0 0  1.99048 0 0  2.09524 0 0  2.2 0.1025 0  2.2 0.205 0  2.2 0.3075 0  2.1 0.41 0  2 0.41 0  1.9 0.41 0  1.8 0.41 0  1.7 0.41 0  1.6 0.41 0  1.5 0.41 0  1.4 0.41 0  1.3 0.41 0  1.2 0.41 0  1.1 0.41 0  1 0.41 0  0.9 0.41 0  0.8 0.41 0  0.7 0.41 0  0.6 0.41 0  0.5 0.41 0  0.4 0.41 0  0.3 0.41 0  0.2 0.41 0  0.1 0.41 0  0 0.3075 0  0 0.205 0  0 0.1025 0  0.156699 0.225 0  0.175 0.243301 0  0.225 0.243301 0  0.243301 0.225 0  0.243301 0.175 0  0.225 0.156699 0  0.175 0.156699 0  0.156699 0.175 0  0.352033 0.262216 0  1.04579 0.252253 0  1.24065 0.243419 0  0.985775 0.171509 0  1.30324 0.187395 0  0.890988 0.190768 0  1.39085 0.202767 0  0.801464 0.204685 0  1.49904 0.204666 0  0.704267 0.202289 0  1.60238 0.204951 0  0.487789 0.19191 0  1.72935 0.219637 0  1.83335 0.187427 0  2.03359 0.193642 0  0.314663 0.307348 0  0.249039 0.333583 0  2.12147 0.253405 0  2.06373 0.0836837 0  0.0734726 0.267055 0  0.143989 0.0677174 0  0.0613613 0.33781 0  0.299628 0.236829 0  0.527114 0.295386 0  0.262384 0.26549 0  0.275777 0.18341 0  1.74578 0.330928 0  1.84001 0.302448 0  1.64998 0.313838 0  0.648421 0.302367 0  1.54544 0.308508 0  0.755686 0.306156 0  1.42668 0.314809 0  0.870524 0.298596 0  1.22553 0.112785 0  1.05603 0.147372 0  0.969346 0.329867 0  1.32527 0.276284 0  2.02914 0.29511 0  1.88168 0.119486 0  1.79545 0.104842 0  1.35688 0.0892539 0  1.69041 0.105324 0  0.914199 0.0955566 0  1.58234 0.102923 0  0.61843 0.10815 0  1.47999 0.101161 0  0.725217 0.104273 0  0.821727 0.102306 0  1.96725 0.105778 0  0.418624 0.241547 0  0.135226 0.239087 0  1.14921 0.314841 0  0.404508 0.333259 0  0.590155 0.206269 0  2.12554 0.150731 0  1.93166 0.22436 0  0.104689 0.190046 0  0.267856 0.0744753 0  0.269368 0.221581 0  0.434446 0.114927 0  1.0089 0.0793381 0  0.953023 0.246698 0  1.25853 0.33355 0  1.05268 0.340828 0  2.1369 0.067383 0  0.522398 0.112537 0  1.3421 0.348929 0  0.215186 0.289473 0  0.203197 0.335348 0  1.13984 0.190728 0  1.93813 0.330504 0  1.10505 0.0883705 0  0.341988 0.0824728 0  0.253113 0.138035 0  0.291932 0.131907 0  0.203713 0.102439 0  0.150375 0.134668 0  0.151494 0.309119 0  0.354384 0.17896 0  0.0685367 0.100776 0  0.424128 0.180088 0  0.474925 0.0568661 0  2.10843 0.347669 0  2.16073 0.280452 0  2.16073 0.229202 0  2.2 0.25625 0  2.07949 0.0418418 0  2.02711 0.0418418 0  2.04286 0 0  0.176756 0.0338587 0  0.124375 0.0338587 0  0.157143 0 0  0.0806807 0.373905 0  0.0306807 0.373905 0  0.05 0.41 0  0.0306807 0.322655 0  0 0.35875 0  0.281851 0.320466 0  0.27452 0.371791 0  0.307331 0.358674 0  0.067417 0.302432 0  0.0367363 0.287277 0  0.307146 0.272089 0  0.325831 0.249523 0  0.333348 0.284782 0  0.255711 0.299536 0  0.288524 0.286419 0  2.07531 0.274257 0  2.03137 0.244376 0  2.07753 0.223523 0  2.01549 0.0947309 0  1.97886 0.052889 0  2.00042 0.14971 0  2.04866 0.138663 0  0.472869 0.268466 0  0.453206 0.216728 0  0.507451 0.243648 0  2.16277 0.177866 0  2.16277 0.126615 0  2.2 0.15375 0  1.90667 0.171923 0  1.88251 0.205894 0  1.85752 0.153456 0  1.88583 0.263404 0  1.83668 0.244938 0  0.604293 0.15721 0  0.647211 0.204279 0  0.661349 0.15522 0  0.359586 0.320304 0  0.37827 0.297737 0  0.155113 0.241194 0  0.145962 0.232044 0  0.164645 0.235355 0  0.259539 0.179205 0  0.262888 0.191705 0  0.248296 0.187059 0  0.281006 0.251159 0  1.0209 0.15944 0  1.05091 0.199813 0  1.01578 0.211881 0  1.26438 0.15009 0  1.23309 0.178102 0  1.27195 0.215407 0  1.29121 0.101019 0  1.33006 0.138324 0  0.928528 0.0477783 0  0.876147 0.0477783 0  0.890476 0 0  0.902594 0.143162 0  0.949987 0.133533 0  0.938381 0.181138 0  0.867963 0.0989313 0  0.856357 0.146537 0  0.829911 0.051153 0  1.41178 0.0446269 0  1.35939 0.0446269 0  1.41429 0 0  1.37386 0.14601 0  1.34705 0.195081 0  1.41844 0.0952074 0  1.43542 0.151964 0  1.47333 0.0505805 0  0.77753 0.051153 0  0.785714 0 0  0.811595 0.153496 0  0.846226 0.197726 0  0.773472 0.10329 0  0.76334 0.154479 0  0.729275 0.0521365 0  1.52571 0.0505805 0  1.51905 0 0  1.48951 0.152913 0  1.44494 0.203716 0  1.53117 0.102042 0  1.54069 0.153795 0  1.57689 0.0514615 0  1.9804 0.259735 0  1.98262 0.209001 0  1.82001 0.356224 0  1.87 0.356224 0  1.85 0.41 0  1.78468 0.261043 0  1.78135 0.203532 0  1.72289 0.370464 0  1.77289 0.370464 0  1.75 0.41 0  1.7929 0.316688 0  1.73757 0.275282 0  1.62499 0.361919 0  1.67499 0.361919 0  1.65 0.41 0  1.69788 0.322383 0  1.68966 0.266738 0  1.62618 0.259394 0  1.66586 0.212294 0  0.624211 0.356183 0  0.674211 0.356183 0  0.65 0.41 0  0.619288 0.254318 0  0.676344 0.252328 0  1.52272 0.359254 0  1.57272 0.359254 0  1.55 0.41 0  1.59771 0.311173 0  1.57391 0.256729 0  1.52224 0.256587 0  1.55071 0.204809 0  0.727843 0.358078 0  0.777843 0.358078 0  0.75 0.41 0  0.702053 0.304261 0  0.729977 0.254223 0  0.778575 0.25542 0  0.752865 0.203487 0  1.41334 0.362405 0  1.46334 0.362405 0  1.45 0.41 0  1.48606 0.311659 0  1.46286 0.259738 0  1.40876 0.258788 0  0.835262 0.354298 0  0.885262 0.354298 0  0.85 0.41 0  0.813105 0.302376 0  0.835994 0.25164 0  0.880756 0.244682 0  0.934673 0.369934 0  0.984673 0.369934 0  0.95 0.41 0  0.919935 0.314231 0  0.676894 0.0521365 0  0.680952 0 0  0.714742 0.153281 0  0.671824 0.106212 0  0.623501 0.054075 0  1.62927 0.0514615 0  1.62381 0 0  1.59236 0.153937 0  1.63638 0.104124 0  1.6464 0.155137 0  1.6833 0.052662 0  1.73568 0.052662 0  1.72857 0 0  1.70988 0.16248 0  1.74293 0.105083 0  1.7624 0.16224 0  1.7882 0.052421 0  1.84058 0.052421 0  1.83333 0 0  1.8144 0.146135 0  1.83857 0.112164 0  1.88369 0.059743 0  1.12461 0.36242 0  1.17461 0.36242 0  1.15 0.41 0  1.31425 0.231839 0  1.28296 0.259852 0  1.35806 0.239526 0  1.37597 0.295546 0  1.92648 0.052889 0  1.9381 0 0  1.92447 0.112632 0  1.94945 0.165069 0  0.352254 0.37163 0  0.402254 0.37163 0  0.35 0.41 0  0.513557 0.352693 0  0.563557 0.352693 0  0.55 0.41 0  0.587767 0.298876 0  0.558634 0.250827 0  0.538972 0.19909 0  0.452254 0.37163 0  0.45 0.41 0  0.465811 0.314323 0  0.411566 0.287403 0  0.385328 0.251881 0  0.119958 0.214566 0  0.0890808 0.22855 0  0.104349 0.253071 0  0.22452 0.371791 0  0.25 0.41 0  0.291071 0.0372376 0  0.23869 0.0372376 0  0.261905 0 0  0.265876 0.243536 0  0.256335 0.223291 0  0.252842 0.245245 0  0.284498 0.229205 0  1.03246 0.113355 0  0.997337 0.125424 0  0.961549 0.0874474 0  0.922006 0.218733 0  0.969399 0.209103 0  0.961184 0.288282 0  0.911774 0.272647 0  1.22926 0.371775 0  1.27927 0.371775 0  1.25 0.41 0  1.02634 0.375414 0  1.07634 0.375414 0  1.05 0.41 0  1.01101 0.335348 0  2.11607 0.0336915 0  2.16845 0.0336915 0  2.14762 0 0  2.16845 0.0849415 0  2.2 0.05125 0  2.10032 0.0755333 0  0.556277 0.159403 0  0.570414 0.110343 0  0.505093 0.152224 0  1.32105 0.379464 0  1.37105 0.379464 0  1.35 0.41 0  1.33369 0.312607 0  1.38439 0.331869 0  0.999406 0.249476 0  1.00757 0.29106 0  1.30031 0.34124 0  1.2919 0.304917 0  2.13122 0.109057 0  2.09464 0.117207 0  0.272572 0.202495 0  0.259684 0.21079 0  0.248296 0.212941 0  0.287702 0.21012 0  2.1235 0.202068 0  2.07956 0.172187 0  1.02826 0.039669 0  0.975878 0.039669 0  0.995238 0 0  1.04923 0.29654 0  1.10095 0.327835 0  1.0975 0.283547 0  0.57112 0.054075 0  0.576191 0 0  0.523104 0.0562685 0  1.24959 0.288485 0  1.20387 0.324195 0  1.19493 0.27913 0  0.238785 0.277481 0  0.232112 0.311528 0  0.226118 0.334465 0  0.201599 0.372674 0  1.14453 0.252784 0  1.19024 0.217074 0  1.09281 0.221491 0  0.209191 0.31241 0  0.220093 0.266387 0  0.243692 0.254395 0  0.235355 0.235355 0  0.478422 0.113732 0  0.461117 0.153419 0  1.91906 0.370252 0  1.96907 0.370252 0  1.95 0.41 0  1.98364 0.312807 0  2.01457 0.352555 0  1.88907 0.316476 0  1.9349 0.277432 0  1.18268 0.151757 0  1.09794 0.16905 0  1.12872 0.0441853 0  1.07634 0.0441853 0  1.1 0 0  1.05697 0.0838543 0  1.08054 0.117871 0  1.12244 0.139549 0  1.16529 0.100578 0  0.304922 0.078474 0  0.328137 0.0412364 0  0.380518 0.0412364 0  0.366667 0 0  0.388217 0.0986999 0  0.426747 0.0574635 0  0.31696 0.10719 0  0.279894 0.103191 0  0.272523 0.134971 0  0.260485 0.106255 0  0.228413 0.120237 0  0.214357 0.129569 0  0.239057 0.147367 0  1.30701 0.0446269 0  1.30952 0 0  1.24133 0.0563925 0  0.235785 0.0884571 0  1.18895 0.0563925 0  1.20476 0 0  0.206618 0.0512195 0  0.173851 0.0850782 0  0.0367363 0.236028 0  0 0.25625 0  0.264445 0.160722 0  0.248207 0.156517 0  0.235355 0.164645 0  0.283855 0.157658 0  0.130694 0.182523 0  0.127344 0.195023 0  0.151704 0.187059 0  0.127532 0.162357 0  0.153537 0.154834 0  0.0523445 0.197523 0  0.14336 0.274103 0  0.112483 0.288087 0  0.31508 0.181185 0  0.327006 0.207895 0  0.323158 0.155434 0  0.0866493 0.050388 0  0.0342684 0.050388 0  0.052381 0 0  0.0342684 0.101638 0  0 0.05125 0  0.421376 0.210817 0  0.455958 0.185999 0  0.429287 0.147508 0  0.106428 0.323464 0  0.353208 0.220588 0  0.106263 0.0842467 0  0.0342684 0.152888 0  0 0.15375 0  0.109456 0.117722 0  0.147182 0.101193 0  0.0866129 0.145411 0  0.162687 0.145684 0  0.164645 0.164645 0  0.348186 0.130716 0  0.386504 0.210254 0  0.389256 0.179524 0  0.394415 0.146944 0  0.125747 0.359559 0  0.175747 0.359559 0  0.15 0.41 0  0.177345 0.322233 0  0.142613 0.219544 0  0.151704 0.212941 0  0.499367 0.0284331 0  0.446986 0.0284331 0  0.471429 0 0  0.498661 0.0847016 0  0.454685 0.0858966 0  0.201856 0.126219 0  0.212941 0.151704 0  0.18334 0.299296 0  0.175187 0.142334 0  0.187059 0.151704 0  0.177044 0.118554 0  2.15421 0.327585 0  2.15421 0.378834 0  2.2 0.35875 0  2.10421 0.378834 0  2.15 0.41 0  2.05422 0.378
[...]
<PointData  Vectors="u"> 
<DataArray  type="Float32"  Name="u"  NumberOfComponents="3" format="ascii">0.000000e+00 0.000000e+00 0.000000e+00  0.000000e+00 0.000000e+00 0.000000e+00  0.000000e+00 0.000000e+00 0.000000e+00  0.000000e+00 0.000000e+00 0.000000e+00  0.000000e+00 0.000000e+00 0.000000e+00  0.000000e+00 0.000000e+00 0.000000e+00  0.000000e+00 0.000000e+00 0.000000e+00  0.000000e+00 0.000000e+00 0.000000e+00  0.000000e+00 0.000000e+00 0.000000e+00  0.000000e+00 0.000000e+00 0.000000e+00  0.000000e+00 0.000000e+00 0.000000e+00  0.000000e+00 0.000000e+00 0.000000e+00  0.000000e+00 0.000000e+00 0.000000e+00  0.000000e+00 0.000000e+00 0.000000e+00  0.000000e+00 0.000000e+00 0.000000e+00  0.000000e+00 0.000000e+00 0.000000e+00  0.000000e+00 0.000000e+00 0.000000e+00  0.000000e+00 0.000000e+00 0.000000e+00  0.000000e+00 0.000000e+00 0.000000e+00  0.000000e+00 0.000000e+00 0.000000e+00  0.000000e+00 0.000000e+00 0.000000e+00  0.000000e+00 0.000000e+00 0.000000e+00  0.000000e+00 0.000000e+00 0.000000e+00  0.000000e+00 0.000000e+00 0.000000e+00  0.000000e+00 0.000000e+00 0.000000e+00  0.000000e+00 0.000000e+00 0.000000e+00  0.000000e+00 0.000000e+00 0.000000e+00  0.000000e+00 0.000000e+00 0.000000e+00  1.125000e+00 4.683106e-10 0.000000e+00  1.500000e+00 7.656299e-10 0.000000e+00  1.125000e+00 4.677083e-10 0.000000e+00  0.000000e+00 0.000000e+00 0.000000e+00  0.000000e+00 0.000000e+00 0.000000e+00  0.000000e+00 0.000000e+00 0.000000e+00  0.000000e+00 0.000000e+00 0.000000e+00  0.000000e+00 0.000000e+00 0.000000e+00  0.000000e+00 0.000000e+00 0.000000e+00  0.000000e+00 0.000000e+00 0.000000e+00  0.000000e+00 0.000000e+00 0.000000e+00  0.000000e+00 0.000000e+00 0.000000e+00  0.000000e+00 0.000000e+00 0.000000e+00  0.000000e+00 0.000000e+00 0.000000e+00  0.000000e+00 0.000000e+00 0.000000e+00  0.000000e+00 0.000000e+00 0.000000e+00  0.000000e+00 0.000000e+00 0.000000e+00  0.000000e+00 0.000000e+00 0.000000e+00  0.000000e+00 0.000000e+00 0.000000e+00  0.000000e+00 0.000000e+00 0.000000e+00  0.000000e+00 0.000000e+00 0.000000e+00  0.000000e+00 0.000000e+00 0.000000e+00  0.000000e+00 0.000000e+00 0.000000e+00  0.000000e+00 0.000000e+00 0.000000e+00  1.125000e+00 0.000000e+00 0.000000e+00  1.500000e+00 0.000000e+00 0.000000e+00  1.125000e+00 0.000000e+00 0.000000e+00  0.000000e+00 0.000000e+00 0.000000e+00  0.000000e+00 0.000000e+00 0.000000e+00  0.000000e+00 0.000000e+00 0.000000e+00  0.000000e+00 0.000000e+00 0.000000e+00  0.000000e+00 0.000000e+00 0.000000e+00  0.000000e+00 0.000000e+00 0.000000e+00  0.000000e+00 0.000000e+00 0.000000e+00  0.000000e+00 0.000000e+00 0.000000e+00  1.254862e+00 -3.267717e-01 0.000000e+00  1.420273e+00 5.900765e-05 0.000000e+00  1.447315e+00 6.299602e-06 0.000000e+00  1.460004e+00 9.546954e-05 0.000000e+00  1.488937e+00 1.948078e-06 0.000000e+00  1.492816e+00 9.391938e-05 0.000000e+00  1.499822e+00 -2.796278e-07 0.000000e+00  1.500089e+00 -9.859384e-05 0.000000e+00  1.499996e+00 -4.985669e-07 0.000000e+00  1.499914e+00 -1.182417e-03 0.000000e+00  1.500000e+00 -2.518383e-07 0.000000e+00  1.459143e+00 -8.176427e-03 0.000000e+00  1.492353e+00 -6.458747e-08 0.000000e+00  1.488978e+00 -1.335042e-08 0.000000e+00  1.495395e+00 1.462059e-09 0.000000e+00  1.428349e+00 -4.292117e-01 0.000000e+00  1.755239e+00 -2.756850e-01 0.000000e+00  1.416370e+00 9.360957e-10 0.000000e+00  9.746825e-01 6.133230e-10 0.000000e+00  1.275199e+00 5.640730e-01 0.000000e+00  1.556116e+00 -2.961193e-01 0.000000e+00  1.082650e+00 2.946408e-01 0.000000e+00  8.273529e-01 -4.152392e-01 0.000000e+00  1.218404e+00 -2.361703e-02 0.000000e+00  1.131315e+00 -6.100156e-01 0.000000e+00  3.406262e-01 2.217418e-01 0.000000e+00  9.339847e-01 -1.740689e-08 0.000000e+00  1.161055e+00 -6.034722e-09 0.000000e+00  1.077191e+00 -7.773797e-08 0.000000e+00  1.162916e+00 -2.150886e-03 0.000000e+00  1.117588e+00 -2.147387e-07 0.000000e+00  1.134663e+00 -8.588211e-05 0.000000e+00  1.069613e+00 -3.063586e-07 0.000000e+00  1.187150e+00 9.707112e-05 0.000000e+00  1.196483e+00 4.962955e-06 0.000000e+00  1.381495e+00 5.227051e-05 0.000000e+00  9.433877e-01 4.597507e-05 0.000000e+00  1.318629e+00 6.663863e-07 0.000000e+00  1.210179e+00 1.023754e-09 0.000000e+00  1.238990e+00 -2.635376e-09 0.000000e+00  1.141941e+00 -1.314967e-08 0.000000e+00  1.021814e+00 -3.956111e-08 0.000000e+00  1.145379e+00 -5.657428e-08 0.000000e+00  1.072615e+00 4.964203e-05 0.000000e+00  1.128089e+00 -1.631796e-07 0.000000e+00  1.163858e+00 -6.615676e-04 0.000000e+00  1.115138e+00 -3.041646e-07 0.000000e+00  1.137768e+00 -4.738129e-04 0.000000e+00  1.123743e+00 -4.488137e-05 0.000000e+00  1.148602e+00 7.203090e-10 0.000000e+00  1.367921e+00 -1.093346e-01 0.000000e+00  6.018156e-01 5.487439e-01 0.000000e+00  1.069351e+00 1.155782e-05 0.000000e+00  1.037706e+00 -1.148184e-01 0.000000e+00  1.497345e+00 -6.120223e-03 0.000000e+00  1.394880e+00 8.886570e-10 0.000000e+00  1.486622e+00 -4.527636e-10 0.000000e+00  6.308950e-01 -1.046485e-01 0.000000e+00  1.542862e+00 3.303047e-01 0.000000e+00  3.152941e-01 -2.924796e-01 0.000000e+00  1.204753e+00 7.822957e-02 0.000000e+00  9.364395e-01 3.313522e-05 0.000000e+00  1.437877e+00 1.094863e-04 0.000000e+00  9.101684e-01 1.482457e-06 0.000000e+00  8.414506e-01 1.432932e-05 0.000000e+00  8.240296e-01 3.039215e-10 0.000000e+00  1.191235e+00 1.046500e-02 0.000000e+00  7.605997e-01 -1.195160e-08 0.000000e+00  1.704247e+00 -1.936417e-01 0.000000e+00  1.894617e+00 -1.136781e-02 0.000000e+00  1.492733e+00 2.709361e-05 0.000000e+00  9.377899e-01 2.981835e-10 0.000000e+00  1.014509e+00 1.671755e-05 0.000000e+00  1.180939e+00 2.556785e-01 0.000000e+00  1.004602e+00 5.529378e-01 0.000000e+00  1.146407e+00 5.475980e-01 0.000000e+00  1.765741e+00 3.679086e-02 0.000000e+00  1.098571e+00 -5.725648e-01 0.000000e+00  1.776580e+00 4.662218e-01 0.000000e+00  1.110201e+00 1.101517e-01 0.000000e+00  1.239234e+00 -4.217010e-01 0.000000e+00  1.364660e+00 2.311159e-02 0.000000e+00  7.337987e-01 1.686214e-02 0.000000e+00  7.734880e-01 3.061778e-10 0.000000e+00  1.296797e+00 6.480140e-10 0.000000e+00  1.479092e+00 8.248810e-10 0.000000e+00  1.406250e+00 6.837933e-10 0.000000e+00  5.498305e-01 1.808745e-10 0.000000e+00  5.498305e-01 2.335903e-10 0.000000e+00  0.000000e+00 0.000000e+00 0.000000e+00  1.156712e+00 -4.952139e-02 0.000000e+00  9.327711e-01 -1.077827e-01 0.000000e+00  0.000000e+00 0.000000e+00 0.000000e+00  7.403908e-01 1.142466e-01 0.000000e+00  5.279340e-01 5.463376e-02 0.000000e+00  0.000000e+00 0.000000e+00 0.000000e+00  1.063989e+00 2.303947e-01 0.000000e+00  6.562500e-01 0.000000e+00 0.000000e+00  1.600413e+00 -4.147794e-01 0.000000e+00  1.090409e+00 -1.084263e-01 0.000000e+00  1.140692e+00 -1.707580e-01 0.000000e+00  1.307997e+00 4.947312e-01 0.000000e+00  1.280109e+00 3.577160e-01 0.000000e+00  1.250664e+00 -5.321790e-01 0.000000e+00  1.105724e+00 -3.926165e-01 0.000000e+00  1.324387e+00 -4.179303e-01 0.000000e+00  1.676819e+00 -4.962554e-01 0.000000e+00  1.414221e+00 -5.756851e-01 0.000000e+00  1.328795e+00 1.052941e-09 0.000000e+00  1.444659e+00 1.383669e-09 0.000000e+00  1.487753e+00 1.289587e-09 0.000000e+00  1.065998e+00 8.274810e-10 0.000000e+00  6.741431e-01 3.452596e-10 0.000000e+00  1.390887e+00 1.230575e-09 0.000000e+00  1.342929e+00 1.183378e-09 0.000000e+00  1.353675e+00 -6.139602e-02 0.000000e+00  1.432131e+00 -3.930367e-02 0.000000e+00  1.436046e+00 -3.052902e-02 0.000000e+00  1.473720e+00 8.125041e-10 0.000000e+00  1.280697e+00 6.284676e-10 0.000000e+00  1.406250e+00 6.838906e-10 0.000000e+00  1.460949e+00 -1.977240e-09 0.000000e+00  1.499972e+00 -4.676324e-09 0.000000e+00  1.405173e+00 -7.011499e-09 0.000000e+00  1.378250e+00 -3.243881e-09 0.000000e+00  1.443069e+00 -1.155826e-08 0.000000e+00  1.416088e+00 -2.135824e-03 0.000000e+00  1.499754e+00 -2.859797e-03 0.000000e+00  1.411020e+00 -1.602587e-03 0.000000e+00  1.240103e+00 -2.461689e-01 0.000000e+00  1.278623e+00 -2.388331e-01 0.000000e+00  4.075322e-01 3.644969e-01 0.000000e+00  3.164471e-01 3.781685e-01 0.000000e+00  0.000000e+00 0.000000e+00 0.000000e+00  1.781557e-01 2.319414e-01 0.000000e+00  1.126880e-01 9.398395e-02 0.000000e+00  0.000000e+00 0.000000e+00 0.000000e+00  9.079478e-01 -5.647654e-01 0.000000e+00  1.425950e+00 7.296583e-05 0.000000e+00  1.499043e+00 6.505424e-05 0.000000e+00  1.498303e+00 8.414634e-05 0.000000e+00  1.392382e+00 3.726003e-06 0.000000e+00  1.474177e+00 7.417550e-06 0.000000e+00  1.496134e+00 3.907269e-06 0.000000e+00  1.114088e+00 1.136811e-06 0.000000e+00  1.341322e+00 6.119388e-07 0.000000e+00  6.178160e-01 1.790449e-05 0.000000e+00  6.178433e-01 1.063936e-05 0.000000e+00  0.000000e+00 0.000000e+00 0.000000e+00  1.363631e+00 7.572915e-05 0.000000e+00  1.317790e+00 8.579385e-05 0.000000e+00  1.479719e+00 1.120941e-04 0.000000e+00  1.098599e+00 2.359551e-05 0.000000e+00  1.378143e+00 2.552793e-05 0.000000e+00  6.553203e-01 -8.235687e-06 0.000000e+00  5.819917e-01 -9.998175e-08 0.000000e+00  5.819915e-01 -4.956342e-08 0.000000e+00  0.000000e+00 0.000000e+00 0.000000e+00  1.375796e+00 -1.111911e-07 0.000000e+00  1.496488e+00 4.204697e-07 0.000000e+00  1.069741e+00 -2.879706e-07 0.000000e+00  1.399602e+00 -4.692853e-07 0.000000e+00  6.488854e-01 -1.098670e-07 0.000000e+00  6.552613e-01 -6.072948e-05 0.000000e+00  0.000000e+00 0.000000e+00 0.000000e+00  1.405463e+00 -8.993918e-05 0.000000e+00  1.498172e+00 3.890031e-05 0.000000e+00  1.130852e+00 -2.008919e-04 0.000000e+00  1.409024e+00 -3.604363e-04 0.000000e+00  6.658591e-01 -1.539869e-04 0.000000e+00  6.488855e-01 -8.193624e-08 0.000000e+00  0.000000e+00 0.000000e+00 0.000000e+00  1.403164e+00 -4.544845e-07 0.000000e+00  1.499941e+00 -5.386945e-07 0.000000e+00  1.121641e+00 -2.365294e-07 0.000000e+00  1.406413e+00 -3.518494e-07 0.000000e+00  6.585696e-01 -5.617971e-08 0.000000e+00  1.393066e+00 1.047007e-09 0.000000e+00  1.499429e+00 1.151957e-09 0.000000e+00  6.837466e-01 -2.430866e-09 0.000000e+00  6.837466e-01 -6.791660e-10 0.000000e+00  0.000000e+00 0.000000e+00 0.000000e+00  1.387897e+00 -2.519135e-08 0.000000e+00  1.499923e+00 -3.208904e-08 0.000000e+00  5.227840e-01 -6.712057e-09 0.000000e+00  5.227840e-01 -3.129111e-09 0.000000e+00  0.000000e+00 0.000000e+00 0.000000e+00  1.054758e+00 -1.124461e-08 0.000000e+00  1.323690e+00 -4.371141e-08 0.000000e+00  6.211099e-01 -3.131191e-08 0.000000e+00  6.211099e-01 -1.792042e-08 0.000000e+00  0.000000e+00 0.000000e+00 0.000000e+00  1.008194e+00 -3.892338e-08 0.000000e+00  1.363955e+00 -8.469043e-08 0.000000e+00  1.394393e+00 -1.734160e-07 0.000000e+00  1.498101e+00 -1.363097e-07 0.000000e+00  6.855157e-01 -1.126036e-03 0.000000e+00  6.843123e-01 -3.203472e-04 0.000000e+00  0.000000e+00 0.000000e+00 0.000000e+00  1.414147e+00 -5.203521e-03 0.000000e+00  1.420612e+00 -1.846225e-03 0.000000e+00  6.507095e-01 -8.459383e-08 0.000000e+00  6.507094e-01 -5.707901e-08 0.000000e+00  0.000000e+00 0.000000e+00 0.000000e+00  1.097643e+00 -1.353508e-07 0.000000e+00  1.404488e+00 -2.775441e-07 0.000000e+00  1.405013e+00 -3.945434e-07 0.000000e+00  1.499999e+00 -3.756776e-07 0.000000e+00  6.633784e-01 -3.151549e-05 0.000000e+00  6.633449e-01 3.137723e-05 0.000000e+00  0.000000e+00 0.000000e+00 0.000000e+00  1.148588e+00 -6.033349e-04 0.000000e+00  1.413732e+00 -5.823568e-04 0.000000e+00  1.409277e+00 -1.212852e-04 0.000000e+00  1.500079e+00 -4.562294e-04 0.000000e+00  6.156636e-01 -1.143687e-07 0.000000e+00  6.156634e-01 -1.060535e-07 0.000000e+00  0.000000e+00 0.000000e+00 0.000000e+00  1.093955e+00 -2.908004e-07 0.000000e+00  1.393057e+00 -4.829598e-07 0.000000e+00  1.396735e+00 -3.971451e-07 0.000000e+00  7.041877e-01 4.652146e-05 0.000000e+00  7.042470e-01 4.141589e-05 0.000000e+00  0.000000e+00 0.000000e+00 0.000000e+00  1.161367e+00 6.558375e-05 0.000000e+00  1.422291e+00 6.625882e-05 0.000000e+00  1.443727e+00 1.078227e-04 0.000000e+00  5.289556e-01 1.968529e-05 0.000000e+00  5.289918e-01 1.304882e-05 0.000000e+00  0.000000e+00 0.000000e+00 0.000000e+00  1.073986e+00 7.737851e-05 0.000000e+00  6.654931e-01 -2.700980e-04 0.000000e+00  0.000000e+00 0.000000e+00 0.000000e+00  1.404515e+00 -8.402673e-04 0.000000e+00  1.151118e+00 -8.373460e-04 0.000000e+00  6.860772e-01 -1.946937e-04 0.000000e+00  6.585697e-01 -3.400216e-08 0.000000e+00  0.000000e+00 0.000000e+00 0.000000e+00  1.406933e+00 -2.393500e-07 0.000000e+00  1.136785e+00 -1.004607e-07 0.000000e+00  1.411257e+00 -1.458449e-07 0.000000e+00  6.716764e-01 -1.928009e-08 0.000000e+00  6.716764e-01 -9.742986e-09 0.000000e+00  0.000000e+00 0.000000e+00 0.000000e+00  1.435470e+00 -7.508995e-08 0.000000e+00  1.143662e+00 -2.900019e-08 0.000000e+00  1.434737e+00 -3.781556e-08 0.000000e+00  6.690535e-01 -4.289812e-09 0.000000e+00  6.690535e-01 -1.505076e-09 0.000000e+00  0.000000e+00 0.000000e+00 0.000000e+00  1.376318e+00 -1.520829e-08 0.000000e+00  1.192379e+00 -6.711634e-09 0.000000e+00  7.468913e-01 -5.358453e-10 0.000000e+00  6.154720e-01 3.794641e-06 0.000000e+00  6.154785e-01 2.692750e-06 0.000000e+00  0.000000e+00 0.000000e+00 0.000000e+00  1.474288e+00 1.397872e-06 0.000000e+00  1.392611e+00 2.553069e-06 0.000000e+00  1.457454e+00 1.432323e-07 0.000000e+00  1.207365e+00 -1.782699e-07 0.000000e+00  6.741431e-01 1.356326e-10 0.000000e+00  0.000000e+00 0.000000e+00 0.000000e+00  1.195472e+00 -1.690078e-10 0.000000e+00  1.443088e+00 3.621816e-10 0.000000e+00  7.471075e-01 -7.364055e-02 0.000000e+00  6.176062e-01 -3.879152e-02 0.000000e+00  0.000000e+00 0.000000e+00 0.000000e+00  7.395084e-01 -1.209792e-02 0.000000e+00  7.278570e-01 -4.701217e-03 0.000000e+00  0.000000e+00 0.000000e+00 0.000000e+00  1.189521e+00 -7.533816e-03 0.000000e+00  1.424423e+00 -1.428298e-02 0.000000e+00  1.487704e+00 -9.168879e-03 0.000000e+00  5.544844e-01 -1.816368e-02 0.000000e+00  0.000000e+00 0.000000e+00 0.000000e+00  1.111749e+00 -5.759855e-02 0.000000e+00  1.285214e+00 -1.571576e-01 0.000000e+00  1.305063e+00 -1.966108e-01 0.000000e+00  4.367746e-01 2.647437e-01 0.000000e+00  9.424269e-01 3.965944e-01 0.000000e+00  1.063180e+00 6.459437e-01 0.000000e+00  1.280657e+00 -4.728900e-02 0.000000e+00  0.000000e+00 0.000000e+00 0.000000e+00  9.531561e-01 1.100467e-01 0.000000e+00  1.198416e+00 7.992919e-02 0.000000e+00  0.000000e+00 0.000000e+00 0.000000e+00  6.619991e-01 -5.195970e-01 0.000000e+00  1.726939e-01 -2.386622e-01 0.000000e+00  5.894966e-01 -4.731216e-01 0.000000e+00  5.934182e-01 -3.847252e-01 0.000000e+00  1.200273e+00 4.667233e-05 0.000000e+00  1.274045e+00 6.715842e-05 0.000000e+00  1.006873e+00 4.847924e-05 0.000000e+00  1.493247e+00 1.182297e-04 0.000000e+00  1.499393e+00 1.097622e-04 0.000000e+00  1.252334e+00 8.292221e-05 0.000000e+00  1.336550e+00 1.087762e-04 0.000000e+00  5.072366e-01 7.957450e-07 0.000000e+00  5.072378e-01 2.289889e-07 0.000000e+00  0.000000e+00 0.000000e+00 0.000000e+00  4.634153e-01 5.054532e-06 0.000000e+00  4.634250e-01 2.071586e-06 0.000000e+00  0.000000e+00 0.000000e+00 0.000000e+00  8.934943e-01 2.702770e-05 0.000000e+00  4.525306e-01 9.969704e-11 0.000000e+00  4.525306e-01 9.485314e-11 0.000000e+00  0.000000e+00 0.000000e+00 0.000000e+00  9.855190e-01 3.874565e-10 0.000000e+00  6.562500e-01 1.897813e-10 0.000000e+00  9.017271e-01 4.330588e-10 0.000000e+00  1.418751e+00 -8.962763e-04 0.000000e+00  1.177810e+00 1.674754e-03 0.000000e+00  1.382752e+00 9.627404e-03 0.000000e+00  4.135808e-01 1.215123e-08 0.000000e+00  4.135808e-01 -4.669042e-08 0.000000e+00  0.000000e+00 0.000000e+00 0.000000e+00  1.086705e+00 2.097607e-07 0.000000e+00  9.254949e-01 -1.811551e-07 0.000000e+00  1.429350e+00 8.389081e-05 0.000000e+00  1.235577e+00 5.666830e-05 0.000000e+00  8.374949e-01 4.040498e-07 0.000000e+00  1.143662e+00 1.198561e-06 0.000000e+00  1.171443e+00 6.154178e-10 0.000000e+00  1.224894e+00 8.197583e-10 0.000000e+00  2.228601e-01 -3.929678e-02 0.000000e+00  9.067454e-02 -1.153518e-01 0.000000e+00  0.000000e+00 0.000000e+00 0.000000e+00  4.607784e-01 -1.445146e-01 0.000000e+00  1.499693e+00 1.032584e-09 0.000000e+00  1.461568e+00 1.235337e-09 0.000000e+00  5.243900e-01 8.861593e-06 0.000000e+00  5.244154e-01 1.252059e-05 0.000000e+00  0.000000e+00 0.000000e+00 0.000000e+00  1.200859e+00 3.757427e-05 0.000000e+00  9.614293e-01 1.373233e-05 0.000000e+00  1.279764e+00 2.954829e-05 0.000000e+00  6.864583e-01 8.850205e-04 0.000000e+00  0.000000e+00 0.000000e+00 0.000000e+00  7.137716e-01 5.057127e-03 0.000000e+00  1.251230e+00 3.752047e-06 0.000000e+00  9.928849e-01 4.790966e-06 0.000000e+00  1.303853e+00 9.951615e-06 0.000000e+00  1.407699e+00 -4.756529e-01 0.000000e+00  1.874346e+00 -2.967740e-01 0.000000e+00  1.856187e+00 -1.622658e-01 0.000000e+00  1.287653e+00 2.285019e-03 0.000000e+00  1.418492e+00 2.295381e-05 0.000000e+00  1.494796e+00 1.452409e-05 0.000000e+00  1.490288e+00 4.419442e-05 0.000000e+00  1.944684e+00 -8.312710e-02 0.000000e+00  1.073214e+00 -2.694318e-01 0.000000e+00  7.807825e-01 -4.707004e-01 0.000000e+00  0.000000e+00 0.000000e+00 0.000000e+00  1.197935e+00 3.168527e-02 0.000000e+00  1.363832e+00 3.108277e-02 0.000000e+00  5.252865e-01 8.173411e-11 0.000000e+00  5.252865e-01 2.211904e-10 0.000000e+00  0.000000e+00 0.000000e+00 0.000000e+00  1.085163e+00 7.894867e-10 0.000000e+00  7.228741e-01 4.086060e-10 0.000000e+00  1.056446e+00 -1.221955e-09 0.000000e+00  1.312740e+00 2.291870e-11 0.000000e+00  1.398820e+00 1.360331e-05 0.000000e+00  1.453883e+00 3.984321e-05 0.000000e+00  5.769383e-01 3.791920e-06 0.000000e+00  5.769496e-01 6.921632e-06 0.000000e+00  0.000000e+00 0.000000e+00 0.000000e+00  9.761983e-01 2.464002e-05 0.000000e+00  1.229069e+00 3.255297e-05 0.000000e+00  1.347113e+00 2.591249e-05 0.000000e+00  1.110812e+00 9.960549e-06 0.000000e+00  1.332248e+00 3.324439e-01 0.000000e+00  8.387444e-01 1.051836e-01 0.000000e+00  6.680500e-01 5.618990e-02 0.000000e+00  0.000000e+00 0.000000e+00 0.000000e+00  1.151099e+00 1.623280e-01 0.000000e+00  7.774047e-01 4.495820e-02 0.000000e+00  1.292690e+00 4.219240e-01 0.000000e+00  1.447604e+00 5.050329e-01 0.000000e+00  1.090724e+00 5.901424e-01 0.000000e+00  1.524135e+00 5.081233e-01 0.000000e+00  1.430387e+00 3.558888e-01 0.000000e+00  1.182860e+00 1.946602e-01 0.000000e+00  6.689727e-01 3.953493e-01 0.000000e+00  5.819916e-01 1.159860e-07 0.000000e+00  0.000000e+00 0.000000e+00 0.000000e+00  7.117489e-01 1.112465e-06 0.000000e+00  1.756094e+00 2.971100e-01 0.000000e+00  7.117520e-01 2.620917e-06 0.000000e+00  0.000000e+00 0.000000e+00 0.000000e+00  1.557892e+00 2.216623e-02 0.000000e+00  1.798969e+00 -2.383722e-01 0.000000e+00  1.363395e+00 2.576633e-01 0.000000e+00  1.406250e+00 0.000000e+00 0.000000e+00  5.455436e-01 4.615610e-01 0.000000e+00  4.807036e-01 4.000990e-01 0.000000e+00  0.000000e+00 0.000000e+00 0.000000e+00  7.554182e-01 4.796692e-01 0.000000e+00  2.919607e-01 -2.442049e-01 0.000000e+00  2.557221e-01 -4.247158e-02 0.000000e+00  0.000000e+00 0.000000e+00 0.000000e+00  6.270493e-01 -4.882509e-01 0.000000e+00  5.241417e-01 -4.191007e-01 0.000000e+00  1.238379e+00 1.930068e-02 0.000000e+00  1.332946e+00 6.659647e-01 0.000000e+00  1.435916e+00 6.771114e-01 0.000000e+00  8.080352e-01 1.787658e-01 0.000000e+00  8.955566e-01 -8.997148e-02 0.000000e+00  1.020580e+00 3.418763e-01 0.000000e+00  9.711933e-01 -1.956854e-01 0.000000e+00  7.139116e-01 -1.031807e-01 0.000000e+00  0.000000e+00 0.000000e+00 0.000000e+00  1.155345e+00 -2.630999e-01 0.000000e+00  6.562500e-01 0.000000e+00 0.000000e+00  1.376957e+00 -4.454569e-02 0.000000e+00  1.422499e+00 7.800926e-04 0.000000e+00  1.319057e+00 6.908900e-02 0.000000e+00  1.472135e+00 4.743324e-01 0.000000e+00  1.122558e+00 -1.503617e-01 0.000000e+00  1.382484e+00 -4.394386e-01 0.000000e+00  1.336243e+00 -2.220726e-01 0.000000e+00  1.406250e+00 0.000000e+00 0.000000e+00  1.311157e+00 -6.084890e-01 0.000000e+00  1.605138e+00 -4.959415e-01 0.000000e+00  1.116948e+00 -4.873055e-01 0.000000e+00  7.273917e-01 -4.135211e-01 0.000000e+00  0.000000e+00 0.000000e+00 0.000000e+00  1.205970e+00 3.071207e-01 0.000000e+00  1.270742e+00 -6.122091e-02 0.000000e+00  1.269446e+00 5.486044e-02 0.00000