<?xml version="1.0"?>
<VTKFile type="UnstructuredGrid"  version="0.1"  >
<UnstructuredGrid>
<Piece  NumberOfPoints="2868" NumberOfCells="5400">
<Points>
<DataArray  type="Float32"  NumberOfComponents="3"  format="ascii">0.534923 0.326073 0  0.510642 0.314196 0  0.466125 0.293082 0  0.436448 0.281205 0  0.409468 0.275927 0  0.368998 0.270648 0  0.35281 0.275927 0  0.381139 0.302319 0  0.405421 0.326073 0  0.410817 0.33531 0  0.408119 0.349826 0  0.400025 0.357744 0  0.375743 0.368301 0  0.329878 0.392055 0  0.297502 0.432963 0  0.282663 0.476511 0  0.285361 0.524018 0  0.298851 0.572845 0  0.317737 0.604516 0  0.337972 0.636187 0  0.360904 0.674457 0  0.368998 0.69953 0  0.359555 0.721964 0  0.360904 0.757594 0  0.370347 0.766831 0  0.381139 0.762872 0  0.390582 0.741758 0  0.404072 0.720644 0  0.424307 0.707448 0  0.447239 0.702169 0  0.480964 0.704808 0  0.479615 0.688973 0  0.468823 0.675776 0  0.447239 0.669178 0  0.428354 0.669178 0  0.410817 0.6639 0  0.404072 0.653343 0  0.395978 0.628269 0  0.387884 0.59132 0  0.389233 0.576804 0  0.397327 0.557009 0  0.410817 0.547772 0  0.424307 0.546452 0  0.437797 0.55305 0  0.44589 0.566247 0  0.441843 0.582082 0  0.439145 0.597918 0  0.449937 0.609795 0  0.468823 0.603196 0  0.479615 0.59 0  0.489058 0.570205 0  0.494454 0.546452 0  0.505246 0.522699 0  0.522783 0.509502 0  0.55246 0.494986 0  0.586185 0.484429 0  0.615863 0.48047 0  0.64554 0.473872 0  0.667124 0.461995 0  0.683312 0.451438 0  0.696802 0.435603 0  0.703547 0.417128 0  0.71164 0.393374 0  0.718385 0.37226 0  0.72513 0.364342 0  0.739969 0.353785 0  0.745365 0.344548 0  0.745365 0.327393 0  0.737271 0.318155 0  0.718385 0.316835 0  0.700849 0.319475 0  0.677916 0.318155 0  0.650936 0.316835 0  0.610467 0.318155 0  0.57944 0.324753 0  0.559205 0.328712 0  0.53897 0.326073 0  1 1 0  1 0 0  0 0 0  0 1 0  0.532238 0.32476 0  0.528748 0.323052 0  0.52421 0.320833 0  0.518311 0.317947 0  0.503447 0.310783 0  0.494093 0.306347 0  0.481933 0.30058 0  0.452151 0.28749 0  0.392327 0.273691 0  0.379141 0.271971 0  0.360474 0.283066 0  0.369797 0.291752 0  0.391424 0.31238 0  0.399335 0.32012 0  0.40958 0.341964 0  0.393939 0.36039 0  0.386028 0.36383 0  0.364248 0.374254 0  0.349304 0.381994 0  0.315801 0.409841 0  0.292986 0.551616 0  0.350934 0.657818 0  0.360127 0.737055 0  0.360566 0.748664 0  0.385245 0.753692 0  0.396447 0.732578 0  0.466301 0.703661 0  0.459439 0.672908 0  0.418442 0.666195 0  0.400553 0.642441 0  0.39255 0.612619 0  0.389913 0.60058 0  0.392752 0.568197 0  0.444131 0.573132 0  0.458149 0.606926 0  0.500554 0.533026 0  0.571522 0.489019 0  0.632637 0.476741 0  0.689177 0.444553 0  0.708121 0.403702 0  0.715453 0.38144 0  0.732406 0.359166 0  0.745365 0.337089 0  0.72906 0.317581 0  0.629879 0.317522 0  0.59293 0.321884 0  0.568003 0.326991 0  0.55202 0.327775 0  0.546493 0.327054 0  0.542241 0.326499 0  1 0.9 0  1 0.8 0  1 0.7 0  1 0.6 0  1 0.5 0  1 0.4 0  1 0.3 0  1 0.2 0  1 0.1 0  0.9 0 0  0.8 0 0  0.7 0 0  0.6 0 0  0.5 0 0  0.4 0 0  0.3 0 0  0.2 0 0  0.1 0 0  0.1 1 0  0.2 1 0  0.3 1 0  0.4 1 0  0.5 1 0  0.6 1 0  0.7 1 0  0.8 1 0  0.9 1 0  0 0.1 0  0 0.2 0  0 0.3 0  0 0.4 0  0 0.5 0  0 0.6 0  0 0.7 0  0 0.8 0  0 0.9 0  0.535686 0.503191 0  0.753987 0.733359 0  0.167145 0.741436 0  0.173378 0.257204 0  0.733497 0.159862 0  0.554096 0.15788 0  0.849187 0.479053 0  0.488793 0.838452 0  0.138507 0.5592 0  0.30686 0.154944 0  0.348904 0.890523 0  0.058006 0.065099 0  0.069849 0.937917 0  0.93633 0.939704 0  0.934625 0.053613 0  0.343397 0.333452 0  0.473272 0.639943 0  0.433266 0.638072 0  0.415174 0.58269 0  0.533435 0.545042 0  0.390848 0.340652 0  0.53655 0.320242 0  0.127966 0.393775 0  0.83861 0.850455 0  0.635242 0.85513 0  0.852158 0.633441 0  0.653427 0.626848 0  0.861226 0.24292 0  0.166128 0.12976 0  0.216875 0.869871 0  0.458305 0.11179 0  0.84446 0.101633 0  0.202024 0.642528 0  0.644825 0.115855 0  0.671342 0.218358 0  0.251354 0.286186 0  0.262388 0.75153 0  0.063044 0.751571 0  0.068189 0.242962 0  0.435781 0.905395 0  0.934144 0.451133 0  0.568393 0.237622 0  0.814984 0.395506 0  0.752951 0.517227 0  0.456254 0.780699 0  0.073352 0.531116 0  0.337731 0.206071 0  0.363213 0.960371 0  0.330742 0.363592 0  0.516613 0.55705 0  0.369057 0.332992 0  0.500926 0.617309 0  0.498004 0.665534 0  0.412142 0.61178 0  0.454233 0.636604 0  0.422782 0.567496 0  0.541193 0.52148 0  0.439761 0.65557 0  0.5163 0.533672 0  0.414775 0.64562 0  0.40073 0.576135 0  0.430362 0.588034 0  0.385432 0.351492 0  0.400298 0.335397 0  0.398325 0.348194 0  0.528702 0.314885 0  0.540814 0.322334 0  0.534477 0.322953 0  0.619095 0.743583 0  0.885162 0.737972 0  0.08076 0.668849 0  0.90734 0.36634 0  0.094687 0.868937 0  0.759838 0.912152 0  0.901518 0.540898 0  0.747285 0.607479 0  0.229182 0.071641 0  0.069154 0.450091 0  0.244775 0.203309 0  0.076534 0.331755 0  0.897847 0.167826 0  0.578909 0.911415 0  0.077133 0.146341 0  0.477215 0.203448 0  0.922631 0.869341 0  0.517415 0.074785 0  0.297026 0.827793 0  0.783271 0.246505 0  0.74519 0.061079 0  0.36033 0.069068 0  0.210313 0.475228 0  0.859426 0.928758 0  0.574548 0.609182 0  0.243069 0.383398 0  0.283099 0.934598 0  0.417416 0.843141 0  0.643942 0.553164 0  0.112687 0.079336 0  0.281357 0.658386 0  0.765043 0.436177 0  0.611361 0.198486 0  0.234496 0.58911 0  0.206479 0.702638 0  0.679608 0.155818 0  0.62682 0.259978 0  0.690538 0.264164 0  0.448938 0.956308 0  0.808154 0.328403 0  0.379583 0.91913 0  0.308083 0.297769 0  0.312358 0.730249 0  0.563101 0.278576 0  0.435597 0.746198 0  0.385475 0.225229 0  0.572248 0.518034 0  0.357864 0.35422 0  0.497647 0.641694 0  0.458101 0.655768 0  0.360474 0.310727 0  0.467038 0.620139 0  0.47798 0.659909 0  0.41102 0.628072 0  0.48324 0.609015 0  0.427544 0.617941 0  0.388633 0.328253 0  0.405336 0.599404 0  0.408351 0.565178 0  0.42395 0.600985 0  0.431562 0.576523 0  0.424905 0.655198 0  0.398064 0.58782 0  0.427739 0.557934 0  0.519291 0.303443 0  0.53142 0.320293 0  0.5449 0.323642 0  0.537166 0.323513 0  0.153974 0.920841 0  0.918186 0.67343 0  0.759946 0.820588 0  0.537526 0.783091 0  0.816532 0.545843 0  0.813991 0.178083 0  0.836774 0.702023 0  0.149815 0.318856 0  0.662287 0.923338 0  0.680146 0.791192 0  0.708961 0.663172 0  0.937278 0.287318 0  0.574622 0.688166 0  0.589474 0.076262 0  0.502822 0.926683 0  0.222269 0.811068 0  0.380457 0.164786 0  0.15321 0.684154 0  0.458063 0.051413 0  0.161702 0.056026 0  0.199351 0.198818 0  0.298946 0.095532 0  0.902465 0.795949 0  0.121139 0.791477 0  0.906269 0.112287 0  0.056109 0.822332 0  0.512172 0.13237 0  0.940964 0.741805 0  0.888887 0.408777 0  0.354543 0.825964 0  0.808736 0.068638 0  0.068507 0.394071 0  0.719105 0.563843 0  0.247287 0.149664 0  0.293062 0.237128 0  0.240524 0.434997 0  0.141255 0.623289 0  0.945202 0.160621 0  0.502914 0.247629 0  0.144669 0.480811 0  0.665025 0.060817 0  0.728047 0.224344 0  0.861995 0.313312 0  0.200068 0.534235 0  0.253262 0.965623 0  0.893804 0.49307 0  0.604391 0.572456 0  0.947088 0.345347 0  0.439372 0.227307 0  0.629847 0.159823 0  0.273405 0.880181 0  0.302744 0.776823 0  0.781502 0.295365 0  0.275342 0.349602 0  0.728385 0.472798 0  0.229136 0.246478 0  0.807794 0.480346 0  0.709476 0.112786 0  0.275506 0.694991 0  0.771674 0.394419 0  0.449715 0.861802 0  0.419159 0.799696 0  0.674851 0.503139 0  0.280443 0.61016 0  0.572443 0.192538 0  0.393113 0.87525 0  0.405555 0.948428 0  0.330942 0.934103 0  0.540509 0.597101 0  0.312763 0.668931 0  0.254368 0.540179 0  0.595265 0.25915 0  0.606679 0.234099 0  0.657131 0.279138 0  0.722458 0.279478 0  0.333 0.308056 0  0.351529 0.246142 0  0.455714 0.725794 0  0.585239 0.295143 0  0.340062 0.72492 0  0.545593 0.293773 0  0.555449 0.545426 0  0.414311 0.737314 0  0.590854 0.502323 0  0.350507 0.368444 0  0.484423 0.625665 0  0.483899 0.674542 0  0.378137 0.317274 0  0.446416 0.646404 0  0.373532 0.347654 0  0.446876 0.619769 0  0.466106 0.666068 0  0.437545 0.609254 0  0.434988 0.565726 0  0.41462 0.656829 0  0.418803 0.556961 0  0.398425 0.327446 0  0.517803 0.310421 0  0.549516 0.322918 0  0.57701 0.842889 0  0.829127 0.773906 0  0.643235 0.684732 0  0.134281 0.207734 0  0.865997 0.055966 0  0.680959 0.723345 0  0.165229 0.841555 0  0.54558 0.959672 0  0.783726 0.656439 0  0.913315 0.595533 0  0.699439 0.860667 0  0.785839 0.125076 0  0.551673 0.037713 0  0.920097 0.223214 0  0.206406 0.299726 0  0.087064 0.596401 0  0.935644 0.394252 0  0.964557 0.252582 0  0.230124 0.928346 0  0.120579 0.271764 0  0.857215 0.524082 0  0.767098 0.555147 0  0.936094 0.507131 0  0.804064 0.59585 0  0.700565 0.608273 0  0.429773 0.174231 0  0.117746 0.727333 0  0.538962 0.730231 0  0.862761 0.359173 0  0.821444 0.284046 0  0.193552 0.35818 0  0.234923 0.505555 0  0.193209 0.421217 0  0.220144 0.755896 0  0.594015 0.131642 0  0.283813 0.195855 0  0.517519 0.213961 0  0.553509 0.639116 0  0.280391 0.378018 0  0.852183 0.436817 0  0.746983 0.197173 0  0.821806 0.221318 0  0.449853 0.828453 0  0.883758 0.453926 0  0.183484 0.589542 0  0.348384 0.129314 0  0.255254 0.838525 0  0.504849 0.798516 0  0.320344 0.863432 0  0.611669 0.525425 0  0.265864 0.804962 0  0.72056 0.521442 0  0.613372 0.610122 0  0.481262 0.881068 0  0.655778 0.191988 0  0.701921 0.196918 0  0.565826 0.573181 0  0.46914 0.240927 0  0.343219 0.173284 0  0.888786 0.278502 0  0.244113 0.675093 0  0.739546 0.417914 0  0.784023 0.355942 0  0.326805 0.265549 0  0.248616 0.634948 0  0.789183 0.413964 0  0.764107 0.476606 0  0.32086 0.698956 0  0.334735 0.791464 0  0.53448 0.258468 0  0.395208 0.824575 0  0.309962 0.638947 0  0.263264 0.22712 0  0.756395 0.267254 0  0.639281 0.224663 0  0.358631 0.85116 0  0.309751 0.332089 0  0.663461 0.246436 0  0.424083 0.871774 0  0.269645 0.445719 0  0.272183 0.572741 0  0.624492 0.294638 0  0.717827 0.250266 0  0.408215 0.763744 0  0.485997 0.274924 0  0.288138 0.274311 0  0.410524 0.242487 0  0.741513 0.385737 0  0.691284 0.483519 0  0.515531 0.581849 0  0.463005 0.753402 0  0.681919 0.
[...]
<PointData  Vectors="u"> 
<DataArray  type="Float32"  Name="u"  NumberOfComponents="3" format="ascii">1.856305e-03 9.017290e-02 0.000000e+00  2.387712e-03 9.278865e-02 0.000000e+00  3.497412e-03 9.716234e-02 0.000000e+00  3.836353e-03 1.005278e-01 0.000000e+00  3.977021e-03 1.041591e-01 0.000000e+00  3.939146e-03 1.114226e-01 0.000000e+00  4.889944e-03 1.176338e-01 0.000000e+00  5.742171e-03 1.248270e-01 0.000000e+00  7.424774e-03 1.263146e-01 0.000000e+00  7.905225e-03 1.263185e-01 0.000000e+00  8.522138e-03 1.263129e-01 0.000000e+00  8.752127e-03 1.261523e-01 0.000000e+00  8.931215e-03 1.246444e-01 0.000000e+00  7.955496e-03 1.220351e-01 0.000000e+00  5.258829e-03 1.225994e-01 0.000000e+00  2.093813e-03 1.247588e-01 0.000000e+00  -1.436266e-03 1.277736e-01 0.000000e+00  -4.824801e-03 1.313238e-01 0.000000e+00  -6.872789e-03 1.340380e-01 0.000000e+00  -8.303604e-03 1.363335e-01 0.000000e+00  -9.283349e-03 1.382273e-01 0.000000e+00  -9.604410e-03 1.387790e-01 0.000000e+00  -9.886389e-03 1.393433e-01 0.000000e+00  -1.139536e-02 1.417623e-01 0.000000e+00  -1.275345e-02 1.442329e-01 0.000000e+00  -1.392590e-02 1.468489e-01 0.000000e+00  -1.489534e-02 1.497157e-01 0.000000e+00  -1.460199e-02 1.518500e-01 0.000000e+00  -1.391406e-02 1.543169e-01 0.000000e+00  -1.325903e-02 1.576963e-01 0.000000e+00  -1.206494e-02 1.711735e-01 0.000000e+00  -1.223977e-02 1.863912e-01 0.000000e+00  -1.218023e-02 2.013517e-01 0.000000e+00  -1.329005e-02 2.172385e-01 0.000000e+00  -1.467987e-02 2.257250e-01 0.000000e+00  -1.643132e-02 2.305848e-01 0.000000e+00  -1.805333e-02 2.326637e-01 0.000000e+00  -2.261412e-02 2.376776e-01 0.000000e+00  -2.928636e-02 2.429363e-01 0.000000e+00  -3.052530e-02 2.436218e-01 0.000000e+00  -3.118033e-02 2.442651e-01 0.000000e+00  -3.108882e-02 2.447288e-01 0.000000e+00  -3.093569e-02 2.450429e-01 0.000000e+00  -3.051313e-02 2.450180e-01 0.000000e+00  -2.926456e-02 2.445680e-01 0.000000e+00  -2.631011e-02 2.438401e-01 0.000000e+00  -2.004210e-02 2.407073e-01 0.000000e+00  -8.217201e-03 2.315027e-01 0.000000e+00  6.564864e-03 2.209939e-01 0.000000e+00  1.832891e-02 2.148544e-01 0.000000e+00  2.929287e-02 2.086879e-01 0.000000e+00  3.590791e-02 2.031556e-01 0.000000e+00  3.702931e-02 1.979288e-01 0.000000e+00  3.569198e-02 1.912867e-01 0.000000e+00  3.259403e-02 1.756984e-01 0.000000e+00  2.928260e-02 1.552838e-01 0.000000e+00  2.745383e-02 1.357635e-01 0.000000e+00  2.516420e-02 1.142558e-01 0.000000e+00  2.234782e-02 9.821903e-02 0.000000e+00  2.003712e-02 8.652973e-02 0.000000e+00  1.729205e-02 7.554679e-02 0.000000e+00  1.488223e-02 6.839140e-02 0.000000e+00  1.191118e-02 6.219712e-02 0.000000e+00  9.562858e-03 5.852655e-02 0.000000e+00  8.564365e-03 5.697908e-02 0.000000e+00  6.703820e-03 5.299269e-02 0.000000e+00  5.312497e-03 5.054963e-02 0.000000e+00  3.138716e-03 4.911910e-02 0.000000e+00  1.848121e-03 5.045273e-02 0.000000e+00  1.095439e-03 5.422147e-02 0.000000e+00  9.123056e-04 5.750124e-02 0.000000e+00  5.532289e-04 6.174349e-02 0.000000e+00  1.750410e-04 6.725329e-02 0.000000e+00  7.472700e-05 7.619436e-02 0.000000e+00  7.671626e-04 8.308951e-02 0.000000e+00  1.382676e-03 8.679515e-02 0.000000e+00  1.776436e-03 8.971400e-02 0.000000e+00  0.000000e+00 0.000000e+00 0.000000e+00  0.000000e+00 0.000000e+00 0.000000e+00  1.177265e-02 1.209946e-01 0.000000e+00  -5.211483e-03 1.361392e-01 0.000000e+00  1.875696e-03 9.044056e-02 0.000000e+00  1.930036e-03 9.082601e-02 0.000000e+00  2.025097e-03 9.133148e-02 0.000000e+00  2.172633e-03 9.197669e-02 0.000000e+00  2.596735e-03 9.352022e-02 0.000000e+00  2.860828e-03 9.443477e-02 0.000000e+00  3.170709e-03 9.559658e-02 0.000000e+00  3.695665e-03 9.864539e-02 0.000000e+00  3.999052e-03 1.067692e-01 0.000000e+00  3.972315e-03 1.090915e-01 0.000000e+00  4.696223e-03 1.214230e-01 0.000000e+00  5.100139e-03 1.233223e-01 0.000000e+00  6.447010e-03 1.257434e-01 0.000000e+00  7.023672e-03 1.261742e-01 0.000000e+00  8.200870e-03 1.263188e-01 0.000000e+00  8.820524e-03 1.258943e-01 0.000000e+00  8.893861e-03 1.254039e-01 0.000000e+00  8.873463e-03 1.237806e-01 0.000000e+00  8.626511e-03 1.228146e-01 0.000000e+00  6.888253e-03 1.219695e-01 0.000000e+00  -3.427642e-03 1.297452e-01 0.000000e+00  -8.932405e-03 1.375391e-01 0.000000e+00  -1.039553e-02 1.401097e-01 0.000000e+00  -1.088616e-02 1.408298e-01 0.000000e+00  -1.465748e-02 1.484091e-01 0.000000e+00  -1.485459e-02 1.507032e-01 0.000000e+00  -1.288980e-02 1.620561e-01 0.000000e+00  -1.235414e-02 2.093205e-01 0.000000e+00  -1.569502e-02 2.288380e-01 0.000000e+00  -1.984796e-02 2.347235e-01 0.000000e+00  -2.576808e-02 2.404607e-01 0.000000e+00  -2.800029e-02 2.421249e-01 0.000000e+00  -3.094608e-02 2.439311e-01 0.000000e+00  -2.833747e-02 2.444163e-01 0.000000e+00  -1.260719e-03 2.270811e-01 0.000000e+00  3.707848e-02 2.001052e-01 0.000000e+00  3.070253e-02 1.643630e-01 0.000000e+00  2.619039e-02 1.238415e-01 0.000000e+00  1.891619e-02 8.157360e-02 0.000000e+00  1.317795e-02 6.463711e-02 0.000000e+00  1.052858e-02 5.986612e-02 0.000000e+00  7.717475e-03 5.526614e-02 0.000000e+00  4.392804e-03 4.956286e-02 0.000000e+00  1.429130e-03 5.209792e-02 0.000000e+00  6.025593e-05 7.179908e-02 0.000000e+00  4.024959e-04 8.022408e-02 0.000000e+00  1.119648e-03 8.532301e-02 0.000000e+00  1.497936e-03 8.784714e-02 0.000000e+00  1.608752e-03 8.866782e-02 0.000000e+00  1.700965e-03 8.927003e-02 0.000000e+00  0.000000e+00 0.000000e+00 0.000000e+00  0.000000e+00 0.000000e+00 0.000000e+00  0.000000e+00 0.000000e+00 0.000000e+00  0.000000e+00 0.000000e+00 0.000000e+00  0.000000e+00 0.000000e+00 0.000000e+00  0.000000e+00 0.000000e+00 0.000000e+00  0.000000e+00 0.000000e+00 0.000000e+00  0.000000e+00 0.000000e+00 0.000000e+00  0.000000e+00 0.000000e+00 0.000000e+00  2.177129e-04 1.933906e-02 0.000000e+00  6.463715e-04 3.843844e-02 0.000000e+00  1.368826e-03 5.674756e-02 0.000000e+00  2.467136e-03 7.368185e-02 0.000000e+00  3.932345e-03 8.863074e-02 0.000000e+00  5.719959e-03 1.011482e-01 0.000000e+00  7.805567e-03 1.106485e-01 0.000000e+00  9.781119e-03 1.167052e-01 0.000000e+00  1.117109e-02 1.198675e-01 0.000000e+00  -5.774580e-03 1.373345e-01 0.000000e+00  -6.714936e-03 1.399240e-01 0.000000e+00  -7.325567e-03 1.431609e-01 0.000000e+00  -6.516028e-03 1.450950e-01 0.000000e+00  -3.673516e-03 1.415605e-01 0.000000e+00  -8.832101e-05 1.285800e-01 0.000000e+00  2.117158e-03 1.058696e-01 0.000000e+00  2.225571e-03 7.599461e-02 0.000000e+00  1.063821e-03 4.100508e-02 0.000000e+00  1.269384e-02 1.215147e-01 0.000000e+00  1.389321e-02 1.224621e-01 0.000000e+00  1.404932e-02 1.236247e-01 0.000000e+00  1.241268e-02 1.250818e-01 0.000000e+00  9.116559e-03 1.270114e-01 0.000000e+00  5.038902e-03 1.293785e-01 0.000000e+00  1.158087e-03 1.318404e-01 0.000000e+00  -1.970553e-03 1.339728e-01 0.000000e+00  -4.160470e-03 1.354773e-01 0.000000e+00  3.448042e-02 1.850948e-01 0.000000e+00  1.109319e-02 8.564316e-02 0.000000e+00  -4.266460e-03 1.343646e-01 0.000000e+00  1.209197e-02 1.219971e-01 0.000000e+00  5.963440e-04 5.185736e-02 0.000000e+00  2.577744e-03 8.324918e-02 0.000000e+00  3.275177e-03 3.573360e-02 0.000000e+00  -5.566426e-03 1.505211e-01 0.000000e+00  3.050907e-03 1.282305e-01 0.000000e+00  7.819817e-03 1.140812e-01 0.000000e+00  -8.820982e-03 1.449680e-01 0.000000e+00  1.184985e-02 1.210393e-01 0.000000e+00  -5.316058e-03 1.362969e-01 0.000000e+00  5.411996e-04 2.621868e-02 0.000000e+00  8.821576e-05 1.276302e-02 0.000000e+00  8.374680e-03 1.224797e-01 0.000000e+00  -4.825360e-03 2.074866e-01 0.000000e+00  -1.400874e-02 2.281882e-01 0.000000e+00  -2.845552e-02 2.435814e-01 0.000000e+00  3.163596e-02 1.903076e-01 0.000000e+00  8.155486e-03 1.256994e-01 0.000000e+00  1.895823e-03 8.989311e-02 0.000000e+00  1.050160e-02 1.243353e-01 0.000000e+00  3.517896e-03 6.024606e-02 0.000000e+00  4.563802e-03 1.259933e-01 0.000000e+00  6.269209e-03 4.360279e-02 0.000000e+00  2.183576e-02 1.227938e-01 0.000000e+00  -2.185116e-04 2.763895e-02 0.000000e+00  1.117473e-02 1.200991e-01 0.000000e+00  -7.057191e-03 1.388017e-01 0.000000e+00  4.334755e-03 9.609971e-02 0.000000e+00  2.444106e-04 3.042999e-02 0.000000e+00  -2.714800e-03 1.318438e-01 0.000000e+00  1.524959e-03 6.759961e-02 0.000000e+00  6.501085e-04 6.365653e-02 0.000000e+00  1.081179e-02 1.210935e-01 0.000000e+00  -7.207873e-03 1.373259e-01 0.000000e+00  -1.936085e-03 1.332162e-01 0.000000e+00  1.337065e-02 1.228036e-01 0.000000e+00  -7.007678e-03 1.474660e-01 0.000000e+00  4.564492e-05 1.257864e-02 0.000000e+00  1.781035e-03 8.262988e-02 0.000000e+00  2.161976e-03 4.098189e-02 0.000000e+00  1.169481e-02 6.750066e-02 0.000000e+00  -9.971873e-03 1.547112e-01 0.000000e+00  6.138983e-03 1.275700e-01 0.000000e+00  6.570382e-03 1.133538e-01 0.000000e+00  -7.338014e-03 1.451612e-01 0.000000e+00  8.657041e-03 1.223457e-01 0.000000e+00  3.048644e-02 1.986039e-01 0.000000e+00  7.879394e-03 1.241582e-01 0.000000e+00  7.982113e-03 2.009282e-01 0.000000e+00  -8.315970e-04 1.880644e-01 0.000000e+00  -2.255209e-02 2.394620e-01 0.000000e+00  -8.986172e-03 2.185180e-01 0.000000e+00  -3.002612e-02 2.444795e-01 0.000000e+00  3.331896e-02 1.843682e-01 0.000000e+00  -1.350760e-02 2.224711e-01 0.000000e+00  3.491664e-02 1.962615e-01 0.000000e+00  -1.716747e-02 2.321509e-01 0.000000e+00  -3.014458e-02 2.438430e-01 0.000000e+00  -2.582234e-02 2.429992e-01 0.000000e+00  8.601355e-03 1.253720e-01 0.000000e+00  7.890064e-03 1.261370e-01 0.000000e+00  8.477551e-03 1.260707e-01 0.000000e+00  2.132140e-03 9.074302e-02 0.000000e+00  1.773139e-03 8.938016e-02 0.000000e+00  1.895334e-03 9.018808e-02 0.000000e+00  1.173677e-02 1.361395e-01 0.000000e+00  3.437663e-03 3.898868e-02 0.000000e+00  2.585741e-04 1.312783e-01 0.000000e+00  -4.779623e-04 1.869681e-02 0.000000e+00  -4.932807e-03 1.357934e-01 0.000000e+00  3.606032e-03 8.837654e-02 0.000000e+00  3.002092e-03 2.343792e-02 0.000000e+00  1.489965e-02 7.882822e-02 0.000000e+00  9.472981e-03 1.166856e-01 0.000000e+00  9.584102e-03 1.257779e-01 0.000000e+00  1.028981e-02 1.192456e-01 0.000000e+00  1.270215e-02 1.238358e-01 0.000000e+00  -6.321305e-05 2.012518e-02 0.000000e+00  3.510495e-05 1.356652e-01 0.000000e+00  1.254104e-02 1.216759e-01 0.000000e+00  3.781933e-03 9.493474e-02 0.000000e+00  9.440667e-04 3.024157e-02 0.000000e+00  3.513730e-03 8.736740e-02 0.000000e+00  -8.972163e-03 1.411148e-01 0.000000e+00  4.554835e-04 4.296906e-02 0.000000e+00  8.938930e-04 4.904815e-02 0.000000e+00  6.433553e-03 1.067974e-01 0.000000e+00  5.097294e-03 1.253531e-01 0.000000e+00  1.883416e-03 5.473662e-02 0.000000e+00  2.215284e-02 1.658205e-01 0.000000e+00  8.966168e-03 1.228130e-01 0.000000e+00  -7.685401e-03 1.423029e-01 0.000000e+00  -9.505383e-03 1.491045e-01 0.000000e+00  2.492878e-02 1.234279e-01 0.000000e+00  1.143207e-02 1.204990e-01 0.000000e+00  -6.376469e-03 1.348580e-01 0.000000e+00  6.565066e-03 5.597869e-02 0.000000e+00  1.322754e-03 7.446970e-02 0.000000e+00  -2.069431e-03 1.302176e-01 0.000000e+00  -4.557630e-03 1.340982e-01 0.000000e+00  9.518167e-04 6.177405e-02 0.000000e+00  5.035187e-04 7.231877e-02 0.000000e+00  5.818291e-04 5.998880e-02 0.000000e+00  -5.640434e-03 1.456502e-01 0.000000e+00  1.091381e-03 3.978339e-02 0.000000e+00  -7.945240e-03 1.460721e-01 0.000000e+00  9.314411e-03 1.204118e-01 0.000000e+00  -8.401942e-03 1.385210e-01 0.000000e+00  1.551432e-03 8.465148e-02 0.000000e+00  -1.284185e-02 1.544534e-01 0.000000e+00  4.534797e-03 1.076006e-01 0.000000e+00  3.058424e-02 1.665667e-01 0.000000e+00  8.633037e-03 1.235267e-01 0.000000e+00  1.873842e-03 1.956013e-01 0.000000e+00  -1.090021e-02 2.123987e-01 0.000000e+00  6.845970e-03 1.229003e-01 0.000000e+00  -2.181610e-03 2.162018e-01 0.000000e+00  -6.782260e-03 1.993380e-01 0.000000e+00  -1.981354e-02 2.361081e-01 0.000000e+00  6.607699e-03 2.110243e-01 0.000000e+00  -1.720814e-02 2.357156e-01 0.000000e+00  7.491478e-03 1.255525e-01 0.000000e+00  -2.635108e-02 2.418725e-01 0.000000e+00  -3.070063e-02 2.443637e-01 0.000000e+00  -2.282254e-02 2.410198e-01 0.000000e+00  -2.836308e-02 2.440470e-01 0.000000e+00  -1.529124e-02 2.282252e-01 0.000000e+00  -2.900142e-02 2.431384e-01 0.000000e+00  -3.055090e-02 2.448501e-01 0.000000e+00  2.544961e-03 9.164359e-02 0.000000e+00  1.979739e-03 9.050206e-02 0.000000e+00  1.671255e-03 8.883078e-02 0.000000e+00  1.839337e-03 8.988651e-02 0.000000e+00  -6.179945e-03 1.377380e-01 0.000000e+00  2.208378e-03 2.477230e-02 0.000000e+00  6.846613e-03 8.687473e-02 0.000000e+00  3.023572e-04 1.529842e-01 0.000000e+00  7.469969e-03 4.891108e-02 0.000000e+00  1.505426e-04 3.664396e-02 0.000000e+00  6.798330e-03 5.359557e-02 0.000000e+00  1.197417e-02 1.230758e-01 0.000000e+00  2.672929e-03 1.169959e-01 0.000000e+00  9.559742e-03 1.139398e-01 0.000000e+00  1.696214e-02 9.928685e-02 0.000000e+00  -5.134293e-04 1.188889e-02 0.000000e+00  1.342654e-02 1.568865e-01 0.000000e+00  2.430236e-03 7.638757e-02 0.000000e+00  -3.843928e-03 1.442562e-01 0.000000e+00  -6.852675e-03 1.376529e-01 0.000000e+00  5.437229e-03 1.068905e-01 0.000000e+00  -2.348277e-03 1.324307e-01 0.000000e+00  4.563607e-03 9.510237e-02 0.000000e+00  1.058924e-02 1.190419e-01 0.000000e+00  1.129985e-02 1.205274e-01 0.000000e+00  7.923538e-03 1.129243e-01 0.000000e+00  2.060207e-03 3.548686e-02 0.000000e+00  -4.177598e-03 1.347609e-01 0.000000e+00  5.920145e-05 1.841166e-02 0.000000e+00  -3.514930e-03 1.345894e-01 0.000000e+00  3.391162e-03 8.904398e-02 0.000000e+00  1.029140e-03 2.009931e-02 0.000000e+00  3.235975e-04 2.349542e-02 0.000000e+00  -1.055236e-02 1.447513e-01 0.000000e+00  4.919266e-04 3.715166e-02 0.000000e+00  1.144585e-02 1.247833e-01 0.000000e+00  1.721455e-02 8.599856e-02 0.000000e+00  9.640568e-03 1.176456e-01 0.000000e+00  9.085575e-03 1.183769e-01 0.000000e+00  6.522218e-03 1.239035e-01 0.000000e+00  1.749203e-04 1.303286e-01 0.000000e+00  -3.447717e-05 1.078052e-02 0.000000e+00  3.375104e-03 9.237054e-02 0.000000e+00  6.631816e-03 1.259580e-01 0.000000e+00  1.582421e-03 6.348957e-02 0.000000e+00  5.573435e-04 5.311867e-02 0.000000e+00  -2.668909e-04 2.819032e-02 0.000000e+00  2.159540e-03 1.274544e-01 0.000000e+00  -7.227087e-03 1.414093e-01 0.000000e+00  2.247882e-03 2.420990e-02 0.000000e+00  2.651459e-02 1.488872e-01 0.000000e+00  -8.750000e-04 9.503339e-03 0.000000e+00  4.101235e-03 1.000135e-01 0.000000e+00  1.401870e-03 7.071984e-02 0.000000e+00  -8.102028e-03 1.412017e-01 0.000000e+00  -8.872572e-03 1.396801e-01 0.000000e+00  1.148557e-03 4.386466e-02 0.000000e+00  9.580121e-03 1.219057e-01 0.000000e+00  1.221586e-02 7.109824e-02 0.000000e+00  1.111566e-02 1.207686e-01 0.000000e+00  5.395385e-03 4.724139e-02 0.000000e+00  9.490202e-04 5.599784e-02 0.000000e+00  -6.752001e-03 1.360117e-01 0.000000e+00  4.772200e-03 5.087926e-02 0.000000e+00  -7.572061e-03 1.493404e-01 0.000000e+00  -1.111152e-02 1.506590e-01 0.000000e+00  2.112560e-02 9.986678e-02 0.000000e+00  -5.160313e-03 1.326212e-01 0.000000e+00  2.038374e-03 8.098365e-02 0.000000e+00  -8.979437e-03 1.471932e-01 0.000000e+00  -6.896866e-03 1.461260e-01 0.000000e+00  -7.904674e-03 1.442249e-01 0.000000e+00  2.064095e-02 1.857227e-01 0.000000e+00  -7.750493e-03 1.365195e-01 0.000000e+00  -5.967585e-04 1.281609e-01 0.000000e+00  9.381392e-04 7.838733e-02 0.000000e+00  1.033526e-03 7.583890e-02 0.000000e+00  3.386493e-04 6.631056e-02 0.000000e+00  9.018637e-04 5.400924e-02 0.000000e+00  8.228198e-03 1.210125e-01 0.000000e+00  5.455729e-03 1.139694e-01 0.000000e+00  -1.273351e-02 1.586243e-01 0.000000e+00  7.434555e-04 8.112449e-02 0.000000e+00  -9.222024e-03 1.392621e-01 0.000000e+00  1.967284e-03 8.791204e-02 0.000000e+00  3.021333e-02 1.785338e-01 0.000000e+00  -1.392979e-02 1.521766e-01 0.000000e+00  2.914785e-02 1.537347e-01 0.000000e+00  8.707279e-03 1.230613e-01 0.000000e+00  1.281715e-03 2.060320e-01 0.000000e+00  -6.838321e-03 1.910291e-01 0.000000e+00  6.850997e-03 1.247020e-01 0.000000e+00  -1.183316e-02 2.205682e-01 0.000000e+00  8.461763e-03 1.245624e-01 0.000000e+00  -9.412569e-03 2.276932e-01 0.000000e+00  -1.088998e-02 2.053417e-01 0.000000e+00  -1.565169e-02 2.365534e-01 0.000000e+00  -2.969337e-02 2.446095e-01 0.000000e+00  -1.645034e-02 2.306449e-01 0.000000e+00  -3.082668e-02 2.447626e-01 0.000000e+00  7.455873e-03 1.260837e-01 0.000000e+00  2.411730e-03 9.194049e-02 0.000000e+00  1.581891e-03 8.813416e-02 0.000000e+00  1.869089e-03 1.401220e-01 0.000000e+00  5.711214e-03 6.052313e-02 0.000000e+00  1.782326e-02 1.285441e-01 0.000000e+00  1.241851e-02 1.218534e-01 0.000000e+00  2.783179e-04 2.610127e-02 0.000000e+00  1.448176e-02 1.132953e-01 0.000000e+00  -5.858450e-03 1.367168e-01 0.000000e+00  -1.934630e-03 1.384792e-01 0.000000e+00  1.141281e-02 6.922111e-02 0.000000e+00  2.619761e-03 2.239074e-02 0.000000e+00  5.633483e-03 1.073390e-01 0.000000e+00  4.275728e-04 4.179914e-02 0.000000e+00  3.092396e-03 8.173800e-02 0.000000e+00  -2.306357e-04 1.565278e-02 0.000000e+00  1.147523e-02 1.220913e-01 0.000000e+00  2.929271e-03 1.292914e-01 0.000000e+00  1.133060e-04 1.195473e-02 0.000000e+00  -1.389796e-04 6.701795e-03 0.000000e+00  -7.171176e-03 1.401995e-01 0.000000e+00  1.273949e-02 1.227949e-01 0.000000e+00  4.428521e-03 3.543359e-02 0.000000e+00  1.192271e-02 6.622149e-02 0.000000e+00  1.920030e-03 1.298518e-02 0.000000e+00  9.655438e-03 5.688847e-02 0.000000e+00  1.927227e-02 9.876177e-02 0.000000e+00  4.449430e-03 1.007761e-01 0.000000e+00  -2.587052e-03 1.331663e-01 0.000000e+00  3.906246e-03 1.613295e-01 0.000000e+00  4.252220e-05 2.884080e-02 0.000000e+00  2.696068e-04 3.611994e-02 0.000000e+00  1.057943e-02 1.230710e-01 0.000000e+00  2.398317e-03 1.263656e-01 0.000000e+00  8.288644e-03 1.241488e-01 0.000000e+00  -6.040934e-03 1.360940e-01 0.000000e+00  2.079469e-03 7.643419e-02 0.000000e+00  8.925658e-03 1.171849e-01 0.000000e+00  3.098857e-03 8.973899e-02 0.000000e+00  1.555520e-02 1.727454e-01 0.000000e+00  8.598254e-03 1.222734e-01 0.000000e+00  1.802379e-03 3.338727e-02 0.000000e+00  4.668833e-04 4.950863e-02 0.000000e+00  6.600539e-05 3.536410e-02 0.000000e+00  -8.579918e-03 1.511390e-01 0.000000e+00  1.325087e-03 2.577347e-02 0.000000e+00  8.455101e-05 1.294970e-01 0.000000e+00  6.538751e-03 1.094981e-01 0.000000e+00  -7.850077e-03 1.395332e-01 0.000000e+00  -4.334842e-03 1.539208e-01 0.000000e+00  -9.136987e-03 1.432030e-01 0.000000e+00  2.770847e-02 1.417335e-01 0.000000e+00  -7.984025e-03 1.390461e-01 0.000000e+00  1.559828e-02 8.042502e-02 0.000000e+00  2.370817e-02 1.438582e-01 0.000000e+00  -5.439612e-03 1.478658e-01 0.000000e+00  9.019707e-04 6.639185e-02 0.000000e+00  6.335697e-04 5.790252e-02 0.000000e+00  2.657304e-02 1.728376e-01 0.000000e+00  3.884443e-03 9.638711e-02 0.000000e+00  6.501346e-03 1.114134e-01 0.000000e+00  -4.878586e-04 2.211918e-02 0.000000e+00  -5.248586e-03 1.342015e-01 0.000000e+00  8.585756e-03 6.066717e-02 0.000000e+00  2.759602e-03 4.561776e-02 0.000000e+00  7.826968e-03 1.182520e-01 0.000000e+00  -4.408957e-03 1.326985e-01 0.000000e+00  4.045586e-03 4.815900e-02 0.000000e+00  8.470882e-03 5.981303e-02 0.000000e+00  -8.313331e-03 1.378442e-01 0.000000e+00  -1.036194e-02 1.420057e-01 0.000000e+00  2.565213e-03 8.845133e-02 0.000000e+00  -1.071687e-02 1.480984e-01 0.000000e+00  -7.230817e-03 1.352287e-01 0.000000e+00  1.003747e-02 1.192598e-01 0.000000e+00  8.463208e-04 4.801036e-02 0.000000e+00  7.647848e-04 6.968251e-02 0.000000e+00  -9.904253e-03 1.453587e-01 0.000000e+00  9.231386e-03 1.215165e-01 0.000000e+00  5.167767e-04 6.518334e-02 0.000000e+00  -8.330456e-03 1.484327e-01 0.000000e+00  5.040268e-03 1.237502e-01 0.000000e+00  -3.243172e-03 1.303280e-01 0.000000e+00  1.598189e-04 7.297179e-02 0.000000e+00  6.521586e-04 5.499710e-02 0.000000e+00  -1.299744e-02 1.505961e-01 0.000000e+00  3.581554e-03 9.485299e-02 0.000000e+00  9.834168e-03 1.199846e-01 0.000000e+00  4.124336e-03 1.039766e-01 0.000000e+00  7.486658e-03 5.643742e-02 0.000000e+00  1.827893e-02 8.828817e-02 0.000000e+00  2.264828e-02 1.996904e-01 0.000000e+00  -1.072945e-02 1.577846e-01 0.000000e+00  5.525474e-04 6.