<?xml version="1.0"?>
<VTKFile type="UnstructuredGrid"  version="0.1"  >
<UnstructuredGrid>
<Piece  NumberOfPoints="2868" NumberOfCells="5400">
<Points>
<DataArray  type="Float32"  NumberOfComponents="3"  format="ascii">0.534923 0.326073 0  0.510642 0.314196 0  0.466125 0.293082 0  0.436448 0.281205 0  0.409468 0.275927 0  0.368998 0.270648 0  0.35281 0.275927 0  0.381139 0.302319 0  0.405421 0.326073 0  0.410817 0.33531 0  0.408119 0.349826 0  0.400025 0.357744 0  0.375743 0.368301 0  0.329878 0.392055 0  0.297502 0.432963 0  0.282663 0.476511 0  0.285361 0.524018 0  0.298851 0.572845 0  0.317737 0.604516 0  0.337972 0.636187 0  0.360904 0.674457 0  0.368998 0.69953 0  0.359555 0.721964 0  0.360904 0.757594 0  0.370347 0.766831 0  0.381139 0.762872 0  0.390582 0.741758 0  0.404072 0.720644 0  0.424307 0.707448 0  0.447239 0.702169 0  0.480964 0.704808 0  0.479615 0.688973 0  0.468823 0.675776 0  0.447239 0.669178 0  0.428354 0.669178 0  0.410817 0.6639 0  0.404072 0.653343 0  0.395978 0.628269 0  0.387884 0.59132 0  0.389233 0.576804 0  0.397327 0.557009 0  0.410817 0.547772 0  0.424307 0.546452 0  0.437797 0.55305 0  0.44589 0.566247 0  0.441843 0.582082 0  0.439145 0.597918 0  0.449937 0.609795 0  0.468823 0.603196 0  0.479615 0.59 0  0.489058 0.570205 0  0.494454 0.546452 0  0.505246 0.522699 0  0.522783 0.509502 0  0.55246 0.494986 0  0.586185 0.484429 0  0.615863 0.48047 0  0.64554 0.473872 0  0.667124 0.461995 0  0.683312 0.451438 0  0.696802 0.435603 0  0.703547 0.417128 0  0.71164 0.393374 0  0.718385 0.37226 0  0.72513 0.364342 0  0.739969 0.353785 0  0.745365 0.344548 0  0.745365 0.327393 0  0.737271 0.318155 0  0.718385 0.316835 0  0.700849 0.319475 0  0.677916 0.318155 0  0.650936 0.316835 0  0.610467 0.318155 0  0.57944 0.324753 0  0.559205 0.328712 0  0.53897 0.326073 0  1 1 0  1 0 0  0 0 0  0 1 0  0.532238 0.32476 0  0.528748 0.323052 0  0.52421 0.320833 0  0.518311 0.317947 0  0.503447 0.310783 0  0.494093 0.306347 0  0.481933 0.30058 0  0.452151 0.28749 0  0.392327 0.273691 0  0.379141 0.271971 0  0.360474 0.283066 0  0.369797 0.291752 0  0.391424 0.31238 0  0.399335 0.32012 0  0.40958 0.341964 0  0.393939 0.36039 0  0.386028 0.36383 0  0.364248 0.374254 0  0.349304 0.381994 0  0.315801 0.409841 0  0.292986 0.551616 0  0.350934 0.657818 0  0.360127 0.737055 0  0.360566 0.748664 0  0.385245 0.753692 0  0.396447 0.732578 0  0.466301 0.703661 0  0.459439 0.672908 0  0.418442 0.666195 0  0.400553 0.642441 0  0.39255 0.612619 0  0.389913 0.60058 0  0.392752 0.568197 0  0.444131 0.573132 0  0.458149 0.606926 0  0.500554 0.533026 0  0.571522 0.489019 0  0.632637 0.476741 0  0.689177 0.444553 0  0.708121 0.403702 0  0.715453 0.38144 0  0.732406 0.359166 0  0.745365 0.337089 0  0.72906 0.317581 0  0.629879 0.317522 0  0.59293 0.321884 0  0.568003 0.326991 0  0.55202 0.327775 0  0.546493 0.327054 0  0.542241 0.326499 0  1 0.9 0  1 0.8 0  1 0.7 0  1 0.6 0  1 0.5 0  1 0.4 0  1 0.3 0  1 0.2 0  1 0.1 0  0.9 0 0  0.8 0 0  0.7 0 0  0.6 0 0  0.5 0 0  0.4 0 0  0.3 0 0  0.2 0 0  0.1 0 0  0.1 1 0  0.2 1 0  0.3 1 0  0.4 1 0  0.5 1 0  0.6 1 0  0.7 1 0  0.8 1 0  0.9 1 0  0 0.1 0  0 0.2 0  0 0.3 0  0 0.4 0  0 0.5 0  0 0.6 0  0 0.7 0  0 0.8 0  0 0.9 0  0.535686 0.503191 0  0.753987 0.733359 0  0.167145 0.741436 0  0.173378 0.257204 0  0.733497 0.159862 0  0.554096 0.15788 0  0.849187 0.479053 0  0.488793 0.838452 0  0.138507 0.5592 0  0.30686 0.154944 0  0.348904 0.890523 0  0.058006 0.065099 0  0.069849 0.937917 0  0.93633 0.939704 0  0.934625 0.053613 0  0.343397 0.333452 0  0.473272 0.639943 0  0.433266 0.638072 0  0.415174 0.58269 0  0.533435 0.545042 0  0.390848 0.340652 0  0.53655 0.320242 0  0.127966 0.393775 0  0.83861 0.850455 0  0.635242 0.85513 0  0.852158 0.633441 0  0.653427 0.626848 0  0.861226 0.24292 0  0.166128 0.12976 0  0.216875 0.869871 0  0.458305 0.11179 0  0.84446 0.101633 0  0.202024 0.642528 0  0.644825 0.115855 0  0.671342 0.218358 0  0.251354 0.286186 0  0.262388 0.75153 0  0.063044 0.751571 0  0.068189 0.242962 0  0.435781 0.905395 0  0.934144 0.451133 0  0.568393 0.237622 0  0.814984 0.395506 0  0.752951 0.517227 0  0.456254 0.780699 0  0.073352 0.531116 0  0.337731 0.206071 0  0.363213 0.960371 0  0.330742 0.363592 0  0.516613 0.55705 0  0.369057 0.332992 0  0.500926 0.617309 0  0.498004 0.665534 0  0.412142 0.61178 0  0.454233 0.636604 0  0.422782 0.567496 0  0.541193 0.52148 0  0.439761 0.65557 0  0.5163 0.533672 0  0.414775 0.64562 0  0.40073 0.576135 0  0.430362 0.588034 0  0.385432 0.351492 0  0.400298 0.335397 0  0.398325 0.348194 0  0.528702 0.314885 0  0.540814 0.322334 0  0.534477 0.322953 0  0.619095 0.743583 0  0.885162 0.737972 0  0.08076 0.668849 0  0.90734 0.36634 0  0.094687 0.868937 0  0.759838 0.912152 0  0.901518 0.540898 0  0.747285 0.607479 0  0.229182 0.071641 0  0.069154 0.450091 0  0.244775 0.203309 0  0.076534 0.331755 0  0.897847 0.167826 0  0.578909 0.911415 0  0.077133 0.146341 0  0.477215 0.203448 0  0.922631 0.869341 0  0.517415 0.074785 0  0.297026 0.827793 0  0.783271 0.246505 0  0.74519 0.061079 0  0.36033 0.069068 0  0.210313 0.475228 0  0.859426 0.928758 0  0.574548 0.609182 0  0.243069 0.383398 0  0.283099 0.934598 0  0.417416 0.843141 0  0.643942 0.553164 0  0.112687 0.079336 0  0.281357 0.658386 0  0.765043 0.436177 0  0.611361 0.198486 0  0.234496 0.58911 0  0.206479 0.702638 0  0.679608 0.155818 0  0.62682 0.259978 0  0.690538 0.264164 0  0.448938 0.956308 0  0.808154 0.328403 0  0.379583 0.91913 0  0.308083 0.297769 0  0.312358 0.730249 0  0.563101 0.278576 0  0.435597 0.746198 0  0.385475 0.225229 0  0.572248 0.518034 0  0.357864 0.35422 0  0.497647 0.641694 0  0.458101 0.655768 0  0.360474 0.310727 0  0.467038 0.620139 0  0.47798 0.659909 0  0.41102 0.628072 0  0.48324 0.609015 0  0.427544 0.617941 0  0.388633 0.328253 0  0.405336 0.599404 0  0.408351 0.565178 0  0.42395 0.600985 0  0.431562 0.576523 0  0.424905 0.655198 0  0.398064 0.58782 0  0.427739 0.557934 0  0.519291 0.303443 0  0.53142 0.320293 0  0.5449 0.323642 0  0.537166 0.323513 0  0.153974 0.920841 0  0.918186 0.67343 0  0.759946 0.820588 0  0.537526 0.783091 0  0.816532 0.545843 0  0.813991 0.178083 0  0.836774 0.702023 0  0.149815 0.318856 0  0.662287 0.923338 0  0.680146 0.791192 0  0.708961 0.663172 0  0.937278 0.287318 0  0.574622 0.688166 0  0.589474 0.076262 0  0.502822 0.926683 0  0.222269 0.811068 0  0.380457 0.164786 0  0.15321 0.684154 0  0.458063 0.051413 0  0.161702 0.056026 0  0.199351 0.198818 0  0.298946 0.095532 0  0.902465 0.795949 0  0.121139 0.791477 0  0.906269 0.112287 0  0.056109 0.822332 0  0.512172 0.13237 0  0.940964 0.741805 0  0.888887 0.408777 0  0.354543 0.825964 0  0.808736 0.068638 0  0.068507 0.394071 0  0.719105 0.563843 0  0.247287 0.149664 0  0.293062 0.237128 0  0.240524 0.434997 0  0.141255 0.623289 0  0.945202 0.160621 0  0.502914 0.247629 0  0.144669 0.480811 0  0.665025 0.060817 0  0.728047 0.224344 0  0.861995 0.313312 0  0.200068 0.534235 0  0.253262 0.965623 0  0.893804 0.49307 0  0.604391 0.572456 0  0.947088 0.345347 0  0.439372 0.227307 0  0.629847 0.159823 0  0.273405 0.880181 0  0.302744 0.776823 0  0.781502 0.295365 0  0.275342 0.349602 0  0.728385 0.472798 0  0.229136 0.246478 0  0.807794 0.480346 0  0.709476 0.112786 0  0.275506 0.694991 0  0.771674 0.394419 0  0.449715 0.861802 0  0.419159 0.799696 0  0.674851 0.503139 0  0.280443 0.61016 0  0.572443 0.192538 0  0.393113 0.87525 0  0.405555 0.948428 0  0.330942 0.934103 0  0.540509 0.597101 0  0.312763 0.668931 0  0.254368 0.540179 0  0.595265 0.25915 0  0.606679 0.234099 0  0.657131 0.279138 0  0.722458 0.279478 0  0.333 0.308056 0  0.351529 0.246142 0  0.455714 0.725794 0  0.585239 0.295143 0  0.340062 0.72492 0  0.545593 0.293773 0  0.555449 0.545426 0  0.414311 0.737314 0  0.590854 0.502323 0  0.350507 0.368444 0  0.484423 0.625665 0  0.483899 0.674542 0  0.378137 0.317274 0  0.446416 0.646404 0  0.373532 0.347654 0  0.446876 0.619769 0  0.466106 0.666068 0  0.437545 0.609254 0  0.434988 0.565726 0  0.41462 0.656829 0  0.418803 0.556961 0  0.398425 0.327446 0  0.517803 0.310421 0  0.549516 0.322918 0  0.57701 0.842889 0  0.829127 0.773906 0  0.643235 0.684732 0  0.134281 0.207734 0  0.865997 0.055966 0  0.680959 0.723345 0  0.165229 0.841555 0  0.54558 0.959672 0  0.783726 0.656439 0  0.913315 0.595533 0  0.699439 0.860667 0  0.785839 0.125076 0  0.551673 0.037713 0  0.920097 0.223214 0  0.206406 0.299726 0  0.087064 0.596401 0  0.935644 0.394252 0  0.964557 0.252582 0  0.230124 0.928346 0  0.120579 0.271764 0  0.857215 0.524082 0  0.767098 0.555147 0  0.936094 0.507131 0  0.804064 0.59585 0  0.700565 0.608273 0  0.429773 0.174231 0  0.117746 0.727333 0  0.538962 0.730231 0  0.862761 0.359173 0  0.821444 0.284046 0  0.193552 0.35818 0  0.234923 0.505555 0  0.193209 0.421217 0  0.220144 0.755896 0  0.594015 0.131642 0  0.283813 0.195855 0  0.517519 0.213961 0  0.553509 0.639116 0  0.280391 0.378018 0  0.852183 0.436817 0  0.746983 0.197173 0  0.821806 0.221318 0  0.449853 0.828453 0  0.883758 0.453926 0  0.183484 0.589542 0  0.348384 0.129314 0  0.255254 0.838525 0  0.504849 0.798516 0  0.320344 0.863432 0  0.611669 0.525425 0  0.265864 0.804962 0  0.72056 0.521442 0  0.613372 0.610122 0  0.481262 0.881068 0  0.655778 0.191988 0  0.701921 0.196918 0  0.565826 0.573181 0  0.46914 0.240927 0  0.343219 0.173284 0  0.888786 0.278502 0  0.244113 0.675093 0  0.739546 0.417914 0  0.784023 0.355942 0  0.326805 0.265549 0  0.248616 0.634948 0  0.789183 0.413964 0  0.764107 0.476606 0  0.32086 0.698956 0  0.334735 0.791464 0  0.53448 0.258468 0  0.395208 0.824575 0  0.309962 0.638947 0  0.263264 0.22712 0  0.756395 0.267254 0  0.639281 0.224663 0  0.358631 0.85116 0  0.309751 0.332089 0  0.663461 0.246436 0  0.424083 0.871774 0  0.269645 0.445719 0  0.272183 0.572741 0  0.624492 0.294638 0  0.717827 0.250266 0  0.408215 0.763744 0  0.485997 0.274924 0  0.288138 0.274311 0  0.410524 0.242487 0  0.741513 0.385737 0  0.691284 0.483519 0  0.515531 0.581849 0  0.463005 0.753402 0  0.681919 0.
[...]
<PointData  Vectors="u"> 
<DataArray  type="Float32"  Name="u"  NumberOfComponents="3" format="ascii">1.646832e-01 1.136534e+01 0.000000e+00  3.027097e-01 1.165623e+01 0.000000e+00  6.012327e-01 1.204112e+01 0.000000e+00  7.403134e-01 1.232637e+01 0.000000e+00  8.309231e-01 1.266274e+01 0.000000e+00  9.517058e-01 1.338981e+01 0.000000e+00  1.173049e+00 1.407194e+01 0.000000e+00  1.465607e+00 1.498955e+01 0.000000e+00  1.768401e+00 1.520520e+01 0.000000e+00  1.850093e+00 1.520428e+01 0.000000e+00  1.952886e+00 1.520192e+01 0.000000e+00  1.989831e+00 1.517274e+01 0.000000e+00  2.013774e+00 1.489900e+01 0.000000e+00  1.847887e+00 1.428015e+01 0.000000e+00  1.442308e+00 1.403445e+01 0.000000e+00  9.886669e-01 1.404325e+01 0.000000e+00  5.085135e-01 1.419034e+01 0.000000e+00  6.196246e-02 1.442875e+01 0.000000e+00  -1.857003e-01 1.463706e+01 0.000000e+00  -3.315933e-01 1.481048e+01 0.000000e+00  -3.863391e-01 1.492363e+01 0.000000e+00  -3.859733e-01 1.494138e+01 0.000000e+00  -3.979945e-01 1.493958e+01 0.000000e+00  -5.331135e-01 1.496595e+01 0.000000e+00  -6.631434e-01 1.504205e+01 0.000000e+00  -7.811038e-01 1.514674e+01 0.000000e+00  -8.820073e-01 1.529843e+01 0.000000e+00  -8.666255e-01 1.543329e+01 0.000000e+00  -8.069769e-01 1.560351e+01 0.000000e+00  -7.381628e-01 1.583586e+01 0.000000e+00  -5.525530e-01 1.676044e+01 0.000000e+00  -4.239734e-01 1.788466e+01 0.000000e+00  -2.714432e-01 1.894822e+01 0.000000e+00  -2.065273e-01 1.997972e+01 0.000000e+00  -2.357272e-01 2.047848e+01 0.000000e+00  -3.071759e-01 2.073936e+01 0.000000e+00  -3.726210e-01 2.084354e+01 0.000000e+00  -5.370969e-01 2.109362e+01 0.000000e+00  -7.746688e-01 2.134260e+01 0.000000e+00  -8.122056e-01 2.137285e+01 0.000000e+00  -8.260311e-01 2.140076e+01 0.000000e+00  -8.213172e-01 2.142097e+01 0.000000e+00  -8.178758e-01 2.143827e+01 0.000000e+00  -8.088278e-01 2.144784e+01 0.000000e+00  -7.657768e-01 2.143732e+01 0.000000e+00  -6.390867e-01 2.140790e+01 0.000000e+00  -3.411558e-01 2.126189e+01 0.000000e+00  3.122790e-01 2.078156e+01 0.000000e+00  1.304215e+00 2.019016e+01 0.000000e+00  2.164582e+00 1.979160e+01 0.000000e+00  2.968750e+00 1.931789e+01 0.000000e+00  3.411583e+00 1.884582e+01 0.000000e+00  3.405284e+00 1.837100e+01 0.000000e+00  3.219840e+00 1.776629e+01 0.000000e+00  2.844150e+00 1.637765e+01 0.000000e+00  2.468771e+00 1.458552e+01 0.000000e+00  2.264439e+00 1.287366e+01 0.000000e+00  2.036496e+00 1.096726e+01 0.000000e+00  1.773716e+00 9.533528e+00 0.000000e+00  1.560014e+00 8.486277e+00 0.000000e+00  1.302323e+00 7.507383e+00 0.000000e+00  1.071754e+00 6.878706e+00 0.000000e+00  7.896898e-01 6.345564e+00 0.000000e+00  5.699298e-01 6.037653e+00 0.000000e+00  4.796608e-01 5.909724e+00 0.000000e+00  3.102340e-01 5.600986e+00 0.000000e+00  1.805083e-01 5.447046e+00 0.000000e+00  -1.761628e-02 5.480263e+00 0.000000e+00  -1.326613e-01 5.779929e+00 0.000000e+00  -1.791533e-01 6.373893e+00 0.000000e+00  -1.773968e-01 6.847150e+00 0.000000e+00  -2.017642e-01 7.440041e+00 0.000000e+00  -2.238507e-01 8.201595e+00 0.000000e+00  -1.896060e-01 9.440091e+00 0.000000e+00  -5.049279e-02 1.040521e+01 0.000000e+00  6.207167e-02 1.092095e+01 0.000000e+00  1.480403e-01 1.130716e+01 0.000000e+00  0.000000e+00 0.000000e+00 0.000000e+00  0.000000e+00 0.000000e+00 0.000000e+00  1.705466e+00 1.392748e+01 0.000000e+00  -2.909711e-01 1.479053e+01 0.000000e+00  1.720399e-01 1.139751e+01 0.000000e+00  1.875452e-01 1.144291e+01 0.000000e+00  2.124431e-01 1.150071e+01 0.000000e+00  2.495704e-01 1.157161e+01 0.000000e+00  3.543389e-01 1.172820e+01 0.000000e+00  4.210972e-01 1.181260e+01 0.000000e+00  5.037957e-01 1.191253e+01 0.000000e+00  6.718402e-01 1.216458e+01 0.000000e+00  8.785657e-01 1.291687e+01 0.000000e+00  9.138511e-01 1.315017e+01 0.000000e+00  1.230854e+00 1.453716e+01 0.000000e+00  1.333562e+00 1.478307e+01 0.000000e+00  1.596807e+00 1.512128e+01 0.000000e+00  1.698970e+00 1.518487e+01 0.000000e+00  1.899637e+00 1.520376e+01 0.000000e+00  2.000146e+00 1.512704e+01 0.000000e+00  2.010500e+00 1.503921e+01 0.000000e+00  2.000422e+00 1.472992e+01 0.000000e+00  1.955676e+00 1.451912e+01 0.000000e+00  1.687589e+00 1.413468e+01 0.000000e+00  2.456932e-01 1.431828e+01 0.000000e+00  -3.745069e-01 1.488817e+01 0.000000e+00  -4.342220e-01 1.494312e+01 0.000000e+00  -4.775792e-01 1.495116e+01 0.000000e+00  -8.520692e-01 1.522529e+01 0.000000e+00  -8.841663e-01 1.535844e+01 0.000000e+00  -6.781646e-01 1.612724e+01 0.000000e+00  -2.134825e-01 1.948483e+01 0.000000e+00  -2.761971e-01 2.064796e+01 0.000000e+00  -4.378060e-01 2.094666e+01 0.000000e+00  -6.507912e-01 2.122915e+01 0.000000e+00  -7.306513e-01 2.130669e+01 0.000000e+00  -8.224522e-01 2.138661e+01 0.000000e+00  -7.274536e-01 2.143189e+01 0.000000e+00  7.609261e-01 2.054719e+01 0.000000e+00  3.450021e+00 1.857093e+01 0.000000e+00  2.625731e+00 1.538112e+01 0.000000e+00  2.136375e+00 1.181960e+01 0.000000e+00  1.454843e+00 8.043311e+00 0.000000e+00  9.097005e-01 6.553892e+00 0.000000e+00  6.594379e-01 6.149297e+00 0.000000e+00  4.032075e-01 5.772155e+00 0.000000e+00  8.999061e-02 5.419162e+00 0.000000e+00  -1.583603e-01 6.054051e+00 0.000000e+00  -2.157810e-01 8.830281e+00 0.000000e+00  -1.198036e-01 1.000366e+01 0.000000e+00  1.449341e-02 1.071710e+01 0.000000e+00  8.748712e-02 1.106285e+01 0.000000e+00  1.117884e-01 1.117160e+01 0.000000e+00  1.318193e-01 1.125013e+01 0.000000e+00  0.000000e+00 0.000000e+00 0.000000e+00  0.000000e+00 0.000000e+00 0.000000e+00  0.000000e+00 0.000000e+00 0.000000e+00  0.000000e+00 0.000000e+00 0.000000e+00  0.000000e+00 0.000000e+00 0.000000e+00  0.000000e+00 0.000000e+00 0.000000e+00  0.000000e+00 0.000000e+00 0.000000e+00  0.000000e+00 0.000000e+00 0.000000e+00  0.000000e+00 0.000000e+00 0.000000e+00  1.332848e-02 2.218404e+00 0.000000e+00  5.129480e-02 4.464689e+00 0.000000e+00  1.491167e-01 6.682647e+00 0.000000e+00  3.388604e-01 8.752058e+00 0.000000e+00  6.090553e-01 1.052789e+01 0.000000e+00  9.144253e-01 1.193419e+01 0.000000e+00  1.222265e+00 1.294010e+01 0.000000e+00  1.480789e+00 1.354028e+01 0.000000e+00  1.643597e+00 1.382896e+01 0.000000e+00  -3.258707e-01 1.486378e+01 0.000000e+00  -3.781278e-01 1.499499e+01 0.000000e+00  -3.976395e-01 1.509102e+01 0.000000e+00  -3.137429e-01 1.497734e+01 0.000000e+00  -8.788071e-02 1.433657e+01 0.000000e+00  1.818579e-01 1.285881e+01 0.000000e+00  3.236124e-01 1.051759e+01 0.000000e+00  2.792181e-01 7.529416e+00 0.000000e+00  1.271015e-01 4.065027e+00 0.000000e+00  1.797576e+00 1.397003e+01 0.000000e+00  1.914951e+00 1.402543e+01 0.000000e+00  1.896528e+00 1.406312e+01 0.000000e+00  1.646038e+00 1.410153e+01 0.000000e+00  1.197297e+00 1.418430e+01 0.000000e+00  6.893628e-01 1.432560e+01 0.000000e+00  2.566655e-01 1.449331e+01 0.000000e+00  -4.412518e-02 1.464287e+01 0.000000e+00  -2.195187e-01 1.474660e+01 0.000000e+00  3.068094e+00 1.721182e+01 0.000000e+00  1.088179e+00 8.375780e+00 0.000000e+00  -1.690955e-01 1.465966e+01 0.000000e+00  1.872055e+00 1.405367e+01 0.000000e+00  -3.615143e-02 6.085470e+00 0.000000e+00  3.494857e-01 1.009942e+01 0.000000e+00  2.349817e-01 3.662972e+00 0.000000e+00  -2.030763e-01 1.507952e+01 0.000000e+00  6.597582e-01 1.422502e+01 0.000000e+00  1.297445e+00 1.342079e+01 0.000000e+00  -4.829118e-01 1.514411e+01 0.000000e+00  1.718646e+00 1.393613e+01 0.000000e+00  -2.976978e-01 1.480050e+01 0.000000e+00  6.260443e-02 2.588381e+00 0.000000e+00  3.935409e-03 1.452399e+00 0.000000e+00  1.844129e+00 1.453029e+01 0.000000e+00  4.081259e-01 1.929188e+01 0.000000e+00  -1.264286e-01 2.057285e+01 0.000000e+00  -7.300768e-01 2.138320e+01 0.000000e+00  2.980078e+00 1.775760e+01 0.000000e+00  1.887813e+00 1.509905e+01 0.000000e+00  1.719324e-01 1.131953e+01 0.000000e+00  1.623326e+00 1.405437e+01 0.000000e+00  3.683926e-01 5.917660e+00 0.000000e+00  5.848661e-01 1.243296e+01 0.000000e+00  5.734867e-01 4.294870e+00 0.000000e+00  2.091921e+00 1.185734e+01 0.000000e+00  -6.541669e-02 3.082845e+00 0.000000e+00  1.678988e+00 1.389790e+01 0.000000e+00  -4.016336e-01 1.492951e+01 0.000000e+00  7.189604e-01 1.151168e+01 0.000000e+00  -3.087928e-03 3.493098e+00 0.000000e+00  5.877263e-02 1.447524e+01 0.000000e+00  1.403651e-01 8.084570e+00 0.000000e+00  -9.813669e-02 7.628045e+00 0.000000e+00  1.852235e+00 1.408897e+01 0.000000e+00  -3.628275e-01 1.482874e+01 0.000000e+00  -1.207221e-02 1.458924e+01 0.000000e+00  1.906513e+00 1.404805e+01 0.000000e+00  -3.350279e-01 1.504646e+01 0.000000e+00  -1.068799e-02 1.322902e+00 0.000000e+00  1.600759e-01 1.018041e+01 0.000000e+00  8.302103e-02 4.328877e+00 0.000000e+00  9.340393e-01 6.680872e+00 0.000000e+00  -5.246720e-01 1.552623e+01 0.000000e+00  9.371703e-01 1.420153e+01 0.000000e+00  1.192850e+00 1.342895e+01 0.000000e+00  -3.809795e-01 1.509996e+01 0.000000e+00  1.909520e+00 1.439027e+01 0.000000e+00  2.973388e+00 1.848246e+01 0.000000e+00  1.819434e+00 1.484252e+01 0.000000e+00  1.357782e+00 1.881640e+01 0.000000e+00  5.423159e-01 1.795263e+01 0.000000e+00  -4.908609e-01 2.118297e+01 0.000000e+00  1.651660e-01 1.999179e+01 0.000000e+00  -7.896971e-01 2.142283e+01 0.000000e+00  3.010253e+00 1.719286e+01 0.000000e+00  -1.689323e-01 2.025923e+01 0.000000e+00  3.245615e+00 1.824236e+01 0.000000e+00  -3.132635e-01 2.080902e+01 0.000000e+00  -7.955079e-01 2.138457e+01 0.000000e+00  -6.163730e-01 2.136796e+01 0.000000e+00  1.961028e+00 1.503752e+01 0.000000e+00  1.846100e+00 1.517431e+01 0.000000e+00  1.944164e+00 1.516030e+01 0.000000e+00  2.258134e-01 1.141518e+01 0.000000e+00  1.461734e-01 1.125689e+01 0.000000e+00  1.730339e-01 1.136255e+01 0.000000e+00  1.263044e+00 1.330724e+01 0.000000e+00  3.317890e-01 3.819451e+00 0.000000e+00  2.350258e-01 1.444972e+01 0.000000e+00  -7.043910e-02 2.018518e+00 0.000000e+00  -2.682387e-01 1.476646e+01 0.000000e+00  4.225571e-01 8.717059e+00 0.000000e+00  2.654858e-01 2.367264e+00 0.000000e+00  1.349638e+00 7.696636e+00 0.000000e+00  1.454964e+00 1.358115e+01 0.000000e+00  1.383299e+00 1.411297e+01 0.000000e+00  1.653828e+00 1.391012e+01 0.000000e+00  1.823942e+00 1.406639e+01 0.000000e+00  -2.560427e-02 2.267766e+00 0.000000e+00  2.095468e-01 1.350790e+01 0.000000e+00  1.810082e+00 1.399250e+01 0.000000e+00  6.479337e-01 1.155990e+01 0.000000e+00  1.002778e-01 2.970061e+00 0.000000e+00  5.392939e-01 1.046594e+01 0.000000e+00  -5.007531e-01 1.501299e+01 0.000000e+00  -8.384675e-02 4.881261e+00 0.000000e+00  6.874411e-02 5.748550e+00 0.000000e+00  1.043828e+00 1.260343e+01 0.000000e+00  1.102827e+00 1.405278e+01 0.000000e+00  2.158027e-01 5.397990e+00 0.000000e+00  2.272013e+00 1.580916e+01 0.000000e+00  1.706637e+00 1.405014e+01 0.000000e+00  -4.280554e-01 1.507813e+01 0.000000e+00  -5.046221e-01 1.523775e+01 0.000000e+00  2.202617e+00 1.182592e+01 0.000000e+00  1.682056e+00 1.390224e+01 0.000000e+00  -2.221397e-01 1.469357e+01 0.000000e+00  4.081727e-01 5.717281e+00 0.000000e+00  6.645955e-02 9.047996e+00 0.000000e+00  2.171502e-01 1.435412e+01 0.000000e+00  -1.532358e-01 1.463551e+01 0.000000e+00  1.212312e-02 7.358601e+00 0.000000e+00  -1.262269e-01 8.836369e+00 0.000000e+00  -1.723988e-01 7.146439e+00 0.000000e+00  -2.387135e-01 1.485548e+01 0.000000e+00  -1.294944e-03 4.341374e+00 0.000000e+00  -4.166169e-01 1.512956e+01 0.000000e+00  1.782051e+00 1.419550e+01 0.000000e+00  -3.920064e-01 1.488777e+01 0.000000e+00  1.033158e-01 1.053603e+01 0.000000e+00  -7.362748e-01 1.557525e+01 0.000000e+00  9.274684e-01 1.289100e+01 0.000000e+00  2.688469e+00 1.563559e+01 0.000000e+00  1.943221e+00 1.469064e+01 0.000000e+00  8.447854e-01 1.846871e+01 0.000000e+00  -4.638892e-02 1.962823e+01 0.000000e+00  1.613099e+00 1.468284e+01 0.000000e+00  6.699616e-01 1.985546e+01 0.000000e+00  1.752067e-01 1.875921e+01 0.000000e+00  -3.967169e-01 2.101152e+01 0.000000e+00  1.299814e+00 1.952578e+01 0.000000e+00  -2.262193e-01 2.098907e+01 0.000000e+00  1.773849e+00 1.508104e+01 0.000000e+00  -6.522944e-01 2.129893e+01 0.000000e+00  -8.113452e-01 2.140813e+01 0.000000e+00  -4.815878e-01 2.126867e+01 0.000000e+00  -7.266393e-01 2.141329e+01 0.000000e+00  -2.456742e-01 2.059851e+01 0.000000e+00  -7.577927e-01 2.135351e+01 0.000000e+00  -8.079401e-01 2.143727e+01 0.000000e+00  3.185639e-01 1.149396e+01 0.000000e+00  1.929262e-01 1.139713e+01 0.000000e+00  1.245467e-01 1.118715e+01 0.000000e+00  1.605688e-01 1.132480e+01 0.000000e+00  -3.512459e-01 1.488316e+01 0.000000e+00  2.066583e-01 2.434495e+00 0.000000e+00  7.110986e-01 8.527800e+00 0.000000e+00  2.983503e-01 1.508137e+01 0.000000e+00  6.247560e-01 4.874497e+00 0.000000e+00  -5.219980e-02 4.191528e+00 0.000000e+00  6.467036e-01 5.251728e+00 0.000000e+00  1.851284e+00 1.405842e+01 0.000000e+00  3.949579e-01 1.158648e+01 0.000000e+00  1.009116e+00 1.117451e+01 0.000000e+00  1.622865e+00 9.661470e+00 0.000000e+00  -6.027040e-02 1.307253e+00 0.000000e+00  1.502986e+00 1.522172e+01 0.000000e+00  3.254802e-01 9.148182e+00 0.000000e+00  -9.408766e-02 1.453304e+01 0.000000e+00  -3.771989e-01 1.485940e+01 0.000000e+00  9.761600e-01 1.272492e+01 0.000000e+00  2.527986e-02 1.452406e+01 0.000000e+00  7.306666e-01 1.132222e+01 0.000000e+00  1.584191e+00 1.377808e+01 0.000000e+00  1.751429e+00 1.397338e+01 0.000000e+00  1.266535e+00 1.324663e+01 0.000000e+00  2.052840e-01 3.476380e+00 0.000000e+00  -1.941920e-01 1.469385e+01 0.000000e+00  -6.411252e-03 2.089077e+00 0.000000e+00  -1.606815e-01 1.468581e+01 0.000000e+00  5.281885e-01 1.074658e+01 0.000000e+00  9.931545e-02 1.966920e+00 0.000000e+00  -7.445951e-03 2.494601e+00 0.000000e+00  -5.794993e-01 1.513726e+01 0.000000e+00  2.413825e-02 4.302804e+00 0.000000e+00  1.635991e+00 1.408235e+01 0.000000e+00  1.497078e+00 8.377404e+00 0.000000e+00  1.521122e+00 1.372957e+01 0.000000e+00  1.570057e+00 1.392556e+01 0.000000e+00  1.388019e+00 1.402344e+01 0.000000e+00  3.055441e-01 1.437217e+01 0.000000e+00  -8.891224e-03 1.207950e+00 0.000000e+00  5.241104e-01 1.140254e+01 0.000000e+00  1.140980e+00 1.409155e+01 0.000000e+00  1.728217e-01 7.537903e+00 0.000000e+00  -1.145130e-01 6.216885e+00 0.000000e+00  -7.194771e-02 3.083458e+00 0.000000e+00  6.822568e-01 1.416394e+01 0.000000e+00  -4.032593e-01 1.505047e+01 0.000000e+00  1.820541e-01 2.486928e+00 0.000000e+00  2.471828e+00 1.417317e+01 0.000000e+00  -9.721896e-02 1.036235e+00 0.000000e+00  7.780585e-01 1.214240e+01 0.000000e+00  9.634064e-02 8.517970e+00 0.000000e+00  -4.586660e-01 1.503316e+01 0.000000e+00  -4.691592e-01 1.493515e+01 0.000000e+00  -3.665047e-02 4.890316e+00 0.000000e+00  1.854120e+00 1.413290e+01 0.000000e+00  9.035581e-01 7.071523e+00 0.000000e+00  1.801698e+00 1.403316e+01 0.000000e+00  3.841978e-01 4.797576e+00 0.000000e+00  4.631221e-02 6.614542e+00 0.000000e+00  -2.834058e-01 1.476047e+01 0.000000e+00  2.408094e-01 5.321173e+00 0.000000e+00  -3.656342e-01 1.513867e+01 0.000000e+00  -6.115033e-01 1.533857e+01 0.000000e+00  1.715954e+00 9.673442e+00 0.000000e+00  -6.216793e-02 1.453385e+01 0.000000e+00  2.253785e-01 9.879578e+00 0.000000e+00  -4.786558e-01 1.517814e+01 0.000000e+00  -3.381973e-01 1.504561e+01 0.000000e+00  -4.290224e-01 1.512104e+01 0.000000e+00  2.230560e+00 1.752060e+01 0.000000e+00  -3.141018e-01 1.481085e+01 0.000000e+00  4.830522e-01 1.421245e+01 0.000000e+00  -2.302744e-02 9.658711e+00 0.000000e+00  -3.105522e-03 9.278097e+00 0.000000e+00  -1.948476e-01 8.032218e+00 0.000000e+00  -1.572243e-01 6.307168e+00 0.000000e+00  1.728697e+00 1.435512e+01 0.000000e+00  1.116172e+00 1.357621e+01 0.000000e+00  -6.992208e-01 1.585696e+01 0.000000e+00  -6.018533e-02 1.009019e+01 0.000000e+00  -4.001533e-01 1.492594e+01 0.000000e+00  1.859449e-01 1.100114e+01 0.000000e+00  2.805814e+00 1.674415e+01 0.000000e+00  -8.212667e-01 1.544795e+01 0.000000e+00  2.479157e+00 1.448071e+01 0.000000e+00  1.959222e+00 1.457515e+01 0.000000e+00  8.763290e-01 1.919081e+01 0.000000e+00  7.591815e-02 1.819513e+01 0.000000e+00  1.653925e+00 1.495428e+01 0.000000e+00  -4.624466e-02 2.012659e+01 0.000000e+00  1.928974e+00 1.489530e+01 0.000000e+00  2.143425e-01 2.054162e+01 0.000000e+00  -1.131950e-01 1.918577e+01 0.000000e+00  -1.165811e-01 2.104326e+01 0.000000e+00  -7.799561e-01 2.143530e+01 0.000000e+00  -3.013533e-01 2.073709e+01 0.000000e+00  -8.148392e-01 2.142766e+01 0.000000e+00  1.772211e+00 1.516778e+01 0.000000e+00  2.948170e-01 1.154834e+01 0.000000e+00  1.048661e-01 1.109336e+01 0.000000e+00  3.855879e-01 1.386567e+01 0.000000e+00  5.649372e-01 5.930274e+00 0.000000e+00  1.792474e+00 1.248918e+01 0.000000e+00  1.846750e+00 1.402671e+01 0.000000e+00  1.295609e-02 2.996122e+00 0.000000e+00  1.452936e+00 1.105749e+01 0.000000e+00  -3.239544e-01 1.481729e+01 0.000000e+00  4.764391e-02 1.389388e+01 0.000000e+00  1.065333e+00 6.773348e+00 0.000000e+00  2.379542e-01 2.227777e+00 0.000000e+00  6.398915e-01 1.057074e+01 0.000000e+00  -1.167824e-02 4.848063e+00 0.000000e+00  4.545379e-01 9.757138e+00 0.000000e+00  -3.602983e-02 1.741087e+00 0.000000e+00  1.878159e+00 1.406991e+01 0.000000e+00  5.571509e-01 1.430890e+01 0.000000e+00  4.092079e-03 1.285402e+00 0.000000e+00  -1.648293e-02 7.395020e-01 0.000000e+00  -4.063568e-01 1.500149e+01 0.000000e+00  1.891795e+00 1.405823e+01 0.000000e+00  3.640593e-01 3.578444e+00 0.000000e+00  1.012435e+00 6.524112e+00 0.000000e+00  1.809117e-01 1.333016e+00 0.000000e+00  8.576255e-01 5.604115e+00 0.000000e+00  1.772952e+00 9.579081e+00 0.000000e+00  8.056589e-01 1.211364e+01 0.000000e+00  -3.834401e-02 1.458177e+01 0.000000e+00  6.521428e-01 1.576009e+01 0.000000e+00  -4.876849e-02 3.108990e+00 0.000000e+00  -5.644974e-02 4.004198e+00 0.000000e+00  1.773824e+00 1.404591e+01 0.000000e+00  8.198176e-01 1.410252e+01 0.000000e+00  1.481226e+00 1.402739e+01 0.000000e+00  -2.976697e-01 1.476427e+01 0.000000e+00  2.454968e-01 9.214583e+00 0.000000e+00  1.482890e+00 1.375317e+01 0.000000e+00  4.654107e-01 1.100332e+01 0.000000e+00  1.789553e+00 1.654488e+01 0.000000e+00  1.771951e+00 1.411305e+01 0.000000e+00  9.504247e-02 3.484163e+00 0.000000e+00  -8.160379e-02 5.766593e+00 0.000000e+00  -6.835476e-02 3.998388e+00 0.000000e+00  -4.325550e-01 1.527432e+01 0.000000e+00  8.141690e-02 2.685183e+00 0.000000e+00  3.723669e-01 1.430516e+01 0.000000e+00  1.101299e+00 1.294323e+01 0.000000e+00  -4.427522e-01 1.495413e+01 0.000000e+00  -8.686457e-02 1.528655e+01 0.000000e+00  -5.101187e-01 1.509752e+01 0.000000e+00  2.392864e+00 1.345114e+01 0.000000e+00  -4.400622e-01 1.492165e+01 0.000000e+00  1.272265e+00 7.881485e+00 0.000000e+00  2.306923e+00 1.379609e+01 0.000000e+00  -2.070212e-01 1.490258e+01 0.000000e+00  -2.433953e-02 7.978143e+00 0.000000e+00  -7.879244e-02 6.858416e+00 0.000000e+00  2.578687e+00 1.632080e+01 0.000000e+00  6.819657e-01 1.181201e+01 0.000000e+00  1.140812e+00 1.318865e+01 0.000000e+00  -7.554283e-02 2.438833e+00 0.000000e+00  -1.681077e-01 1.464178e+01 0.000000e+00  5.416070e-01 6.186918e+00 0.000000e+00  9.470997e-02 4.908307e+00 0.000000e+00  1.488513e+00 1.403093e+01 0.000000e+00  -5.205420e-02 1.453700e+01 0.000000e+00  2.110191e-01 5.009519e+00 0.000000e+00  6.084930e-01 6.011382e+00 0.000000e+00  -3.569625e-01 1.487596e+01 0.000000e+00  -5.562923e-01 1.502330e+01 0.000000e+00  3.254716e-01 1.097282e+01 0.000000e+00  -5.841579e-01 1.524008e+01 0.000000e+00  -2.581992e-01 1.472923e+01 0.000000e+00  1.662346e+00 1.394998e+01 0.000000e+00  -1.023797e-01 5.487637e+00 0.000000e+00  -6.778202e-02 8.442065e+00 0.000000e+00  -5.446558e-01 1.515866e+01 0.000000e+00  1.872145e+00 1.426767e+01 0.000000e+00  -1.453669e-01 7.850569e+00 0.000000e+00  -4.263892e-01 1.516382e+01 0.000000e+00  1.301695e+00 1.402820e+01 0.000000e+00  1.794348e-01 1.436237e+01 0.000000e+00  -1.929725e-01 8.966116e+00 0.000000e+00  -1.442463e-01 6.455440e+00 0.000000e+00  -7.488206e-01 1.534801e+01 0.000000e+00  5.796707e-01 1.175778e+01 0.000000e+00  1.750443e+00 1.409196e+01 0.000000e+00  8.483143e-01 1.256600e+01 0.000000e+00  4.204194e-01 5.854346e+00 0.000000e+00  1.434114e+00 8.633121e+00 0.000000e+00  2.431387e+00 1.862887e+01 0.000000e+00  -5.656384e-01 1.574926e+01 0.00000