<?xml version="1.0"?>
<VTKFile type="UnstructuredGrid"  version="0.1"  >
<UnstructuredGrid>
<Piece  NumberOfPoints="2868" NumberOfCells="5400">
<Points>
<DataArray  type="Float32"  NumberOfComponents="3"  format="ascii">0.534923 0.326073 0  0.510642 0.314196 0  0.466125 0.293082 0  0.436448 0.281205 0  0.409468 0.275927 0  0.368998 0.270648 0  0.35281 0.275927 0  0.381139 0.302319 0  0.405421 0.326073 0  0.410817 0.33531 0  0.408119 0.349826 0  0.400025 0.357744 0  0.375743 0.368301 0  0.329878 0.392055 0  0.297502 0.432963 0  0.282663 0.476511 0  0.285361 0.524018 0  0.298851 0.572845 0  0.317737 0.604516 0  0.337972 0.636187 0  0.360904 0.674457 0  0.368998 0.69953 0  0.359555 0.721964 0  0.360904 0.757594 0  0.370347 0.766831 0  0.381139 0.762872 0  0.390582 0.741758 0  0.404072 0.720644 0  0.424307 0.707448 0  0.447239 0.702169 0  0.480964 0.704808 0  0.479615 0.688973 0  0.468823 0.675776 0  0.447239 0.669178 0  0.428354 0.669178 0  0.410817 0.6639 0  0.404072 0.653343 0  0.395978 0.628269 0  0.387884 0.59132 0  0.389233 0.576804 0  0.397327 0.557009 0  0.410817 0.547772 0  0.424307 0.546452 0  0.437797 0.55305 0  0.44589 0.566247 0  0.441843 0.582082 0  0.439145 0.597918 0  0.449937 0.609795 0  0.468823 0.603196 0  0.479615 0.59 0  0.489058 0.570205 0  0.494454 0.546452 0  0.505246 0.522699 0  0.522783 0.509502 0  0.55246 0.494986 0  0.586185 0.484429 0  0.615863 0.48047 0  0.64554 0.473872 0  0.667124 0.461995 0  0.683312 0.451438 0  0.696802 0.435603 0  0.703547 0.417128 0  0.71164 0.393374 0  0.718385 0.37226 0  0.72513 0.364342 0  0.739969 0.353785 0  0.745365 0.344548 0  0.745365 0.327393 0  0.737271 0.318155 0  0.718385 0.316835 0  0.700849 0.319475 0  0.677916 0.318155 0  0.650936 0.316835 0  0.610467 0.318155 0  0.57944 0.324753 0  0.559205 0.328712 0  0.53897 0.326073 0  1 1 0  1 0 0  0 0 0  0 1 0  0.532238 0.32476 0  0.528748 0.323052 0  0.52421 0.320833 0  0.518311 0.317947 0  0.503447 0.310783 0  0.494093 0.306347 0  0.481933 0.30058 0  0.452151 0.28749 0  0.392327 0.273691 0  0.379141 0.271971 0  0.360474 0.283066 0  0.369797 0.291752 0  0.391424 0.31238 0  0.399335 0.32012 0  0.40958 0.341964 0  0.393939 0.36039 0  0.386028 0.36383 0  0.364248 0.374254 0  0.349304 0.381994 0  0.315801 0.409841 0  0.292986 0.551616 0  0.350934 0.657818 0  0.360127 0.737055 0  0.360566 0.748664 0  0.385245 0.753692 0  0.396447 0.732578 0  0.466301 0.703661 0  0.459439 0.672908 0  0.418442 0.666195 0  0.400553 0.642441 0  0.39255 0.612619 0  0.389913 0.60058 0  0.392752 0.568197 0  0.444131 0.573132 0  0.458149 0.606926 0  0.500554 0.533026 0  0.571522 0.489019 0  0.632637 0.476741 0  0.689177 0.444553 0  0.708121 0.403702 0  0.715453 0.38144 0  0.732406 0.359166 0  0.745365 0.337089 0  0.72906 0.317581 0  0.629879 0.317522 0  0.59293 0.321884 0  0.568003 0.326991 0  0.55202 0.327775 0  0.546493 0.327054 0  0.542241 0.326499 0  1 0.9 0  1 0.8 0  1 0.7 0  1 0.6 0  1 0.5 0  1 0.4 0  1 0.3 0  1 0.2 0  1 0.1 0  0.9 0 0  0.8 0 0  0.7 0 0  0.6 0 0  0.5 0 0  0.4 0 0  0.3 0 0  0.2 0 0  0.1 0 0  0.1 1 0  0.2 1 0  0.3 1 0  0.4 1 0  0.5 1 0  0.6 1 0  0.7 1 0  0.8 1 0  0.9 1 0  0 0.1 0  0 0.2 0  0 0.3 0  0 0.4 0  0 0.5 0  0 0.6 0  0 0.7 0  0 0.8 0  0 0.9 0  0.535686 0.503191 0  0.753987 0.733359 0  0.167145 0.741436 0  0.173378 0.257204 0  0.733497 0.159862 0  0.554096 0.15788 0  0.849187 0.479053 0  0.488793 0.838452 0  0.138507 0.5592 0  0.30686 0.154944 0  0.348904 0.890523 0  0.058006 0.065099 0  0.069849 0.937917 0  0.93633 0.939704 0  0.934625 0.053613 0  0.343397 0.333452 0  0.473272 0.639943 0  0.433266 0.638072 0  0.415174 0.58269 0  0.533435 0.545042 0  0.390848 0.340652 0  0.53655 0.320242 0  0.127966 0.393775 0  0.83861 0.850455 0  0.635242 0.85513 0  0.852158 0.633441 0  0.653427 0.626848 0  0.861226 0.24292 0  0.166128 0.12976 0  0.216875 0.869871 0  0.458305 0.11179 0  0.84446 0.101633 0  0.202024 0.642528 0  0.644825 0.115855 0  0.671342 0.218358 0  0.251354 0.286186 0  0.262388 0.75153 0  0.063044 0.751571 0  0.068189 0.242962 0  0.435781 0.905395 0  0.934144 0.451133 0  0.568393 0.237622 0  0.814984 0.395506 0  0.752951 0.517227 0  0.456254 0.780699 0  0.073352 0.531116 0  0.337731 0.206071 0  0.363213 0.960371 0  0.330742 0.363592 0  0.516613 0.55705 0  0.369057 0.332992 0  0.500926 0.617309 0  0.498004 0.665534 0  0.412142 0.61178 0  0.454233 0.636604 0  0.422782 0.567496 0  0.541193 0.52148 0  0.439761 0.65557 0  0.5163 0.533672 0  0.414775 0.64562 0  0.40073 0.576135 0  0.430362 0.588034 0  0.385432 0.351492 0  0.400298 0.335397 0  0.398325 0.348194 0  0.528702 0.314885 0  0.540814 0.322334 0  0.534477 0.322953 0  0.619095 0.743583 0  0.885162 0.737972 0  0.08076 0.668849 0  0.90734 0.36634 0  0.094687 0.868937 0  0.759838 0.912152 0  0.901518 0.540898 0  0.747285 0.607479 0  0.229182 0.071641 0  0.069154 0.450091 0  0.244775 0.203309 0  0.076534 0.331755 0  0.897847 0.167826 0  0.578909 0.911415 0  0.077133 0.146341 0  0.477215 0.203448 0  0.922631 0.869341 0  0.517415 0.074785 0  0.297026 0.827793 0  0.783271 0.246505 0  0.74519 0.061079 0  0.36033 0.069068 0  0.210313 0.475228 0  0.859426 0.928758 0  0.574548 0.609182 0  0.243069 0.383398 0  0.283099 0.934598 0  0.417416 0.843141 0  0.643942 0.553164 0  0.112687 0.079336 0  0.281357 0.658386 0  0.765043 0.436177 0  0.611361 0.198486 0  0.234496 0.58911 0  0.206479 0.702638 0  0.679608 0.155818 0  0.62682 0.259978 0  0.690538 0.264164 0  0.448938 0.956308 0  0.808154 0.328403 0  0.379583 0.91913 0  0.308083 0.297769 0  0.312358 0.730249 0  0.563101 0.278576 0  0.435597 0.746198 0  0.385475 0.225229 0  0.572248 0.518034 0  0.357864 0.35422 0  0.497647 0.641694 0  0.458101 0.655768 0  0.360474 0.310727 0  0.467038 0.620139 0  0.47798 0.659909 0  0.41102 0.628072 0  0.48324 0.609015 0  0.427544 0.617941 0  0.388633 0.328253 0  0.405336 0.599404 0  0.408351 0.565178 0  0.42395 0.600985 0  0.431562 0.576523 0  0.424905 0.655198 0  0.398064 0.58782 0  0.427739 0.557934 0  0.519291 0.303443 0  0.53142 0.320293 0  0.5449 0.323642 0  0.537166 0.323513 0  0.153974 0.920841 0  0.918186 0.67343 0  0.759946 0.820588 0  0.537526 0.783091 0  0.816532 0.545843 0  0.813991 0.178083 0  0.836774 0.702023 0  0.149815 0.318856 0  0.662287 0.923338 0  0.680146 0.791192 0  0.708961 0.663172 0  0.937278 0.287318 0  0.574622 0.688166 0  0.589474 0.076262 0  0.502822 0.926683 0  0.222269 0.811068 0  0.380457 0.164786 0  0.15321 0.684154 0  0.458063 0.051413 0  0.161702 0.056026 0  0.199351 0.198818 0  0.298946 0.095532 0  0.902465 0.795949 0  0.121139 0.791477 0  0.906269 0.112287 0  0.056109 0.822332 0  0.512172 0.13237 0  0.940964 0.741805 0  0.888887 0.408777 0  0.354543 0.825964 0  0.808736 0.068638 0  0.068507 0.394071 0  0.719105 0.563843 0  0.247287 0.149664 0  0.293062 0.237128 0  0.240524 0.434997 0  0.141255 0.623289 0  0.945202 0.160621 0  0.502914 0.247629 0  0.144669 0.480811 0  0.665025 0.060817 0  0.728047 0.224344 0  0.861995 0.313312 0  0.200068 0.534235 0  0.253262 0.965623 0  0.893804 0.49307 0  0.604391 0.572456 0  0.947088 0.345347 0  0.439372 0.227307 0  0.629847 0.159823 0  0.273405 0.880181 0  0.302744 0.776823 0  0.781502 0.295365 0  0.275342 0.349602 0  0.728385 0.472798 0  0.229136 0.246478 0  0.807794 0.480346 0  0.709476 0.112786 0  0.275506 0.694991 0  0.771674 0.394419 0  0.449715 0.861802 0  0.419159 0.799696 0  0.674851 0.503139 0  0.280443 0.61016 0  0.572443 0.192538 0  0.393113 0.87525 0  0.405555 0.948428 0  0.330942 0.934103 0  0.540509 0.597101 0  0.312763 0.668931 0  0.254368 0.540179 0  0.595265 0.25915 0  0.606679 0.234099 0  0.657131 0.279138 0  0.722458 0.279478 0  0.333 0.308056 0  0.351529 0.246142 0  0.455714 0.725794 0  0.585239 0.295143 0  0.340062 0.72492 0  0.545593 0.293773 0  0.555449 0.545426 0  0.414311 0.737314 0  0.590854 0.502323 0  0.350507 0.368444 0  0.484423 0.625665 0  0.483899 0.674542 0  0.378137 0.317274 0  0.446416 0.646404 0  0.373532 0.347654 0  0.446876 0.619769 0  0.466106 0.666068 0  0.437545 0.609254 0  0.434988 0.565726 0  0.41462 0.656829 0  0.418803 0.556961 0  0.398425 0.327446 0  0.517803 0.310421 0  0.549516 0.322918 0  0.57701 0.842889 0  0.829127 0.773906 0  0.643235 0.684732 0  0.134281 0.207734 0  0.865997 0.055966 0  0.680959 0.723345 0  0.165229 0.841555 0  0.54558 0.959672 0  0.783726 0.656439 0  0.913315 0.595533 0  0.699439 0.860667 0  0.785839 0.125076 0  0.551673 0.037713 0  0.920097 0.223214 0  0.206406 0.299726 0  0.087064 0.596401 0  0.935644 0.394252 0  0.964557 0.252582 0  0.230124 0.928346 0  0.120579 0.271764 0  0.857215 0.524082 0  0.767098 0.555147 0  0.936094 0.507131 0  0.804064 0.59585 0  0.700565 0.608273 0  0.429773 0.174231 0  0.117746 0.727333 0  0.538962 0.730231 0  0.862761 0.359173 0  0.821444 0.284046 0  0.193552 0.35818 0  0.234923 0.505555 0  0.193209 0.421217 0  0.220144 0.755896 0  0.594015 0.131642 0  0.283813 0.195855 0  0.517519 0.213961 0  0.553509 0.639116 0  0.280391 0.378018 0  0.852183 0.436817 0  0.746983 0.197173 0  0.821806 0.221318 0  0.449853 0.828453 0  0.883758 0.453926 0  0.183484 0.589542 0  0.348384 0.129314 0  0.255254 0.838525 0  0.504849 0.798516 0  0.320344 0.863432 0  0.611669 0.525425 0  0.265864 0.804962 0  0.72056 0.521442 0  0.613372 0.610122 0  0.481262 0.881068 0  0.655778 0.191988 0  0.701921 0.196918 0  0.565826 0.573181 0  0.46914 0.240927 0  0.343219 0.173284 0  0.888786 0.278502 0  0.244113 0.675093 0  0.739546 0.417914 0  0.784023 0.355942 0  0.326805 0.265549 0  0.248616 0.634948 0  0.789183 0.413964 0  0.764107 0.476606 0  0.32086 0.698956 0  0.334735 0.791464 0  0.53448 0.258468 0  0.395208 0.824575 0  0.309962 0.638947 0  0.263264 0.22712 0  0.756395 0.267254 0  0.639281 0.224663 0  0.358631 0.85116 0  0.309751 0.332089 0  0.663461 0.246436 0  0.424083 0.871774 0  0.269645 0.445719 0  0.272183 0.572741 0  0.624492 0.294638 0  0.717827 0.250266 0  0.408215 0.763744 0  0.485997 0.274924 0  0.288138 0.274311 0  0.410524 0.242487 0  0.741513 0.385737 0  0.691284 0.483519 0  0.515531 0.581849 0  0.463005 0.753402 0  0.681919 0.
[...]
<PointData  Vectors="u"> 
<DataArray  type="Float32"  Name="u"  NumberOfComponents="3" format="ascii">4.758319e-02 2.417400e+00 0.000000e+00  6.477622e-02 2.485994e+00 0.000000e+00  1.011284e-01 2.596629e+00 0.000000e+00  1.142806e-01 2.681375e+00 0.000000e+00  1.211870e-01 2.773987e+00 0.000000e+00  1.256467e-01 2.961398e+00 0.000000e+00  1.556249e-01 3.124075e+00 0.000000e+00  1.864286e-01 3.317628e+00 0.000000e+00  2.354131e-01 3.358694e+00 0.000000e+00  2.491938e-01 3.358740e+00 0.000000e+00  2.668128e-01 3.358533e+00 0.000000e+00  2.733419e-01 3.353875e+00 0.000000e+00  2.783000e-01 3.310031e+00 0.000000e+00  2.506389e-01 3.228215e+00 0.000000e+00  1.760023e-01 3.230465e+00 0.000000e+00  8.924123e-02 3.277653e+00 0.000000e+00  -6.539004e-03 3.348962e+00 0.000000e+00  -9.800000e-02 3.435543e+00 0.000000e+00  -1.524643e-01 3.502790e+00 0.000000e+00  -1.895420e-01 3.559592e+00 0.000000e+00  -2.132985e-01 3.605345e+00 0.000000e+00  -2.204299e-01 3.618102e+00 0.000000e+00  -2.271940e-01 3.630361e+00 0.000000e+00  -2.656755e-01 3.684260e+00 0.000000e+00  -3.004944e-01 3.741199e+00 0.000000e+00  -3.306932e-01 3.802397e+00 0.000000e+00  -3.556637e-01 3.870893e+00 0.000000e+00  -3.485252e-01 3.922761e+00 0.000000e+00  -3.310682e-01 3.983279e+00 0.000000e+00  -3.139547e-01 4.066137e+00 0.000000e+00  -2.799494e-01 4.396049e+00 0.000000e+00  -2.771638e-01 4.771119e+00 0.000000e+00  -2.680857e-01 5.137165e+00 0.000000e+00  -2.877237e-01 5.520440e+00 0.000000e+00  -3.180300e-01 5.722346e+00 0.000000e+00  -3.580272e-01 5.836642e+00 0.000000e+00  -3.950198e-01 5.885132e+00 0.000000e+00  -4.979665e-01 6.002002e+00 0.000000e+00  -6.483824e-01 6.123856e+00 0.000000e+00  -6.759654e-01 6.139626e+00 0.000000e+00  -6.902327e-01 6.154399e+00 0.000000e+00  -6.880917e-01 6.165050e+00 0.000000e+00  -6.847426e-01 6.172449e+00 0.000000e+00  -6.755254e-01 6.172430e+00 0.000000e+00  -6.474437e-01 6.162569e+00 0.000000e+00  -5.796957e-01 6.145971e+00 0.000000e+00  -4.344020e-01 6.073511e+00 0.000000e+00  -1.553925e-01 5.857885e+00 0.000000e+00  2.028732e-01 5.609772e+00 0.000000e+00  4.920875e-01 5.462486e+00 0.000000e+00  7.623386e-01 5.310973e+00 0.000000e+00  9.238341e-01 5.172493e+00 0.000000e+00  9.478772e-01 5.040074e+00 0.000000e+00  9.111864e-01 4.871441e+00 0.000000e+00  8.282246e-01 4.476545e+00 0.000000e+00  7.403997e-01 3.960253e+00 0.000000e+00  6.916729e-01 3.466753e+00 0.000000e+00  6.317559e-01 2.922361e+00 0.000000e+00  5.591274e-01 2.516038e+00 0.000000e+00  4.996931e-01 2.219866e+00 0.000000e+00  4.290311e-01 1.941869e+00 0.000000e+00  3.669197e-01 1.761164e+00 0.000000e+00  2.906315e-01 1.605203e+00 0.000000e+00  2.305631e-01 1.513124e+00 0.000000e+00  2.051856e-01 1.474381e+00 0.000000e+00  1.578452e-01 1.375491e+00 0.000000e+00  1.223285e-01 1.316389e+00 0.000000e+00  6.711327e-02 1.286965e+00 0.000000e+00  3.451577e-02 1.328255e+00 0.000000e+00  1.643962e-02 1.434321e+00 0.000000e+00  1.263294e-02 1.524781e+00 0.000000e+00  3.953039e-03 1.640958e+00 0.000000e+00  -5.024958e-03 1.791472e+00 0.000000e+00  -5.641124e-03 2.035802e+00 0.000000e+00  1.513121e-02 2.224646e+00 0.000000e+00  3.309912e-02 2.326029e+00 0.000000e+00  4.516848e-02 2.405075e+00 0.000000e+00  0.000000e+00 0.000000e+00 0.000000e+00  0.000000e+00 0.000000e+00 0.000000e+00  3.266566e-01 3.190718e+00 0.000000e+00  -1.213556e-01 3.554966e+00 0.000000e+00  4.830647e-02 2.424517e+00 0.000000e+00  5.012203e-02 2.434727e+00 0.000000e+00  5.320611e-02 2.448046e+00 0.000000e+00  5.793008e-02 2.464931e+00 0.000000e+00  7.142946e-02 2.504799e+00 0.000000e+00  7.989966e-02 2.528087e+00 0.000000e+00  9.002206e-02 2.557382e+00 0.000000e+00  1.083592e-01 2.633881e+00 0.000000e+00  1.237290e-01 2.841052e+00 0.000000e+00  1.246987e-01 2.901005e+00 0.000000e+00  1.539601e-01 3.225308e+00 0.000000e+00  1.670207e-01 3.276554e+00 0.000000e+00  2.071375e-01 3.342884e+00 0.000000e+00  2.238556e-01 3.354822e+00 0.000000e+00  2.576465e-01 3.358728e+00 0.000000e+00  2.752654e-01 3.346424e+00 0.000000e+00  2.773095e-01 3.332214e+00 0.000000e+00  2.765628e-01 3.284406e+00 0.000000e+00  2.694621e-01 3.254863e+00 0.000000e+00  2.211250e-01 3.220878e+00 0.000000e+00  -6.028620e-02 3.396866e+00 0.000000e+00  -2.050732e-01 3.588930e+00 0.000000e+00  -2.398333e-01 3.647256e+00 0.000000e+00  -2.523178e-01 3.663309e+00 0.000000e+00  -3.493770e-01 3.839519e+00 0.000000e+00  -3.547972e-01 3.894794e+00 0.000000e+00  -3.033589e-01 4.172648e+00 0.000000e+00  -2.686862e-01 5.330455e+00 0.000000e+00  -3.411642e-01 5.795685e+00 0.000000e+00  -4.355575e-01 5.933168e+00 0.000000e+00  -5.691422e-01 6.066691e+00 0.000000e+00  -6.194836e-01 6.105189e+00 0.000000e+00  -6.852018e-01 6.146746e+00 0.000000e+00  -6.262606e-01 6.159146e+00 0.000000e+00  1.220977e-02 5.754202e+00 0.000000e+00  9.507914e-01 5.095342e+00 0.000000e+00  7.779167e-01 4.189817e+00 0.000000e+00  6.585337e-01 3.165064e+00 0.000000e+00  4.708017e-01 2.094356e+00 0.000000e+00  3.231306e-01 1.666565e+00 0.000000e+00  2.552176e-01 1.546699e+00 0.000000e+00  1.836666e-01 1.431674e+00 0.000000e+00  9.866985e-02 1.293962e+00 0.000000e+00  2.445198e-02 1.375183e+00 0.000000e+00  -7.095790e-03 1.915655e+00 0.000000e+00  4.367551e-03 2.146145e+00 0.000000e+00  2.544422e-02 2.285793e+00 0.000000e+00  3.664290e-02 2.354628e+00 0.000000e+00  4.004404e-02 2.376860e+00 0.000000e+00  4.286611e-02 2.393122e+00 0.000000e+00  0.000000e+00 0.000000e+00 0.000000e+00  0.000000e+00 0.000000e+00 0.000000e+00  0.000000e+00 0.000000e+00 0.000000e+00  0.000000e+00 0.000000e+00 0.000000e+00  0.000000e+00 0.000000e+00 0.000000e+00  0.000000e+00 0.000000e+00 0.000000e+00  0.000000e+00 0.000000e+00 0.000000e+00  0.000000e+00 0.000000e+00 0.000000e+00  0.000000e+00 0.000000e+00 0.000000e+00  5.327526e-03 5.086796e-01 0.000000e+00  1.628281e-02 1.013758e+00 0.000000e+00  3.610466e-02 1.500879e+00 0.000000e+00  6.787592e-02 1.952373e+00 0.000000e+00  1.109127e-01 2.349029e+00 0.000000e+00  1.623890e-01 2.678047e+00 0.000000e+00  2.204335e-01 2.925406e+00 0.000000e+00  2.740559e-01 3.081539e+00 0.000000e+00  3.110109e-01 3.162134e+00 0.000000e+00  -1.350596e-01 3.583976e+00 0.000000e+00  -1.577656e-01 3.645744e+00 0.000000e+00  -1.721039e-01 3.720344e+00 0.000000e+00  -1.515243e-01 3.758428e+00 0.000000e+00  -8.111581e-02 3.656637e+00 0.000000e+00  7.190592e-03 3.315816e+00 0.000000e+00  6.035515e-02 2.728357e+00 0.000000e+00  6.042136e-02 1.958468e+00 0.000000e+00  2.856454e-02 1.057385e+00 0.000000e+00  3.505326e-01 3.203800e+00 0.000000e+00  3.816480e-01 3.226728e+00 0.000000e+00  3.847228e-01 3.253607e+00 0.000000e+00  3.395059e-01 3.286872e+00 0.000000e+00  2.501647e-01 3.332143e+00 0.000000e+00  1.412971e-01 3.389244e+00 0.000000e+00  3.954251e-02 3.449478e+00 0.000000e+00  -4.070185e-02 3.501855e+00 0.000000e+00  -9.553736e-02 3.538773e+00 0.000000e+00  8.785626e-01 4.714506e+00 0.000000e+00  2.866605e-01 2.200702e+00 0.000000e+00  -9.556333e-02 3.510970e+00 0.000000e+00  3.408019e-01 3.217872e+00 0.000000e+00  1.163477e-02 1.370860e+00 0.000000e+00  7.079154e-02 2.215203e+00 0.000000e+00  8.116138e-02 9.231553e-01 0.000000e+00  -1.265913e-01 3.880372e+00 0.000000e+00  9.691582e-02 3.360270e+00 0.000000e+00  2.238997e-01 3.019881e+00 0.000000e+00  -2.080897e-01 3.761593e+00 0.000000e+00  3.288839e-01 3.192050e+00 0.000000e+00  -1.238950e-01 3.558791e+00 0.000000e+00  1.442932e-02 6.756395e-01 0.000000e+00  2.101024e-03 3.352163e-01 0.000000e+00  2.591904e-01 3.247942e+00 0.000000e+00  -8.006432e-02 5.282561e+00 0.000000e+00  -2.983792e-01 5.778265e+00 0.000000e+00  -6.288450e-01 6.139331e+00 0.000000e+00  8.137547e-01 4.850133e+00 0.000000e+00  2.561927e-01 3.341020e+00 0.000000e+00  4.873715e-02 2.409458e+00 0.000000e+00  2.969963e-01 3.268805e+00 0.000000e+00  9.194179e-02 1.550153e+00 0.000000e+00  1.245526e-01 3.241993e+00 0.000000e+00  1.602190e-01 1.121080e+00 0.000000e+00  5.628386e-01 3.147230e+00 0.000000e+00  -7.394088e-03 7.237616e-01 0.000000e+00  3.125745e-01 3.170074e+00 0.000000e+00  -1.660115e-01 3.618459e+00 0.000000e+00  1.242245e-01 2.551483e+00 0.000000e+00  5.256670e-03 8.008446e-01 0.000000e+00  -5.246407e-02 3.448754e+00 0.000000e+00  3.920821e-02 1.793552e+00 0.000000e+00  1.036277e-02 1.689721e+00 0.000000e+00  3.122134e-01 3.199772e+00 0.000000e+00  -1.674177e-01 3.582119e+00 0.000000e+00  -3.859080e-02 3.483227e+00 0.000000e+00  3.700562e-01 3.235116e+00 0.000000e+00  -1.631523e-01 3.812573e+00 0.000000e+00  7.245539e-04 3.261350e-01 0.000000e+00  4.572775e-02 2.205296e+00 0.000000e+00  5.051857e-02 1.063578e+00 0.000000e+00  2.934817e-01 1.734989e+00 0.000000e+00  -2.346932e-01 3.988839e+00 0.000000e+00  1.750877e-01 3.344978e+00 0.000000e+00  1.925265e-01 3.004555e+00 0.000000e+00  -1.719253e-01 3.764382e+00 0.000000e+00  2.681935e-01 3.239370e+00 0.000000e+00  7.887260e-01 5.059289e+00 0.000000e+00  2.474011e-01 3.297103e+00 0.000000e+00  2.356410e-01 5.122772e+00 0.000000e+00  1.007984e-02 4.809993e+00 0.000000e+00  -4.942140e-01 6.043601e+00 0.000000e+00  -1.790882e-01 5.547607e+00 0.000000e+00  -6.644515e-01 6.159984e+00 0.000000e+00  8.511490e-01 4.698168e+00 0.000000e+00  -2.902595e-01 5.643462e+00 0.000000e+00  8.956475e-01 4.998752e+00 0.000000e+00  -3.735638e-01 5.872700e+00 0.000000e+00  -6.672121e-01 6.144815e+00 0.000000e+00  -5.684151e-01 6.126485e+00 0.000000e+00  2.689056e-01 3.331423e+00 0.000000e+00  2.487048e-01 3.353579e+00 0.000000e+00  2.654974e-01 3.351583e+00 0.000000e+00  5.607365e-02 2.431787e+00 0.000000e+00  4.501986e-02 2.395781e+00 0.000000e+00  4.877214e-02 2.417613e+00 0.000000e+00  3.087501e-01 3.497165e+00 0.000000e+00  8.855154e-02 1.002436e+00 0.000000e+00  1.915959e-02 3.435495e+00 0.000000e+00  -1.312487e-02 4.867836e-01 0.000000e+00  -1.142904e-01 3.546429e+00 0.000000e+00  9.643519e-02 2.275139e+00 0.000000e+00  7.626769e-02 6.043762e-01 0.000000e+00  3.804748e-01 2.023492e+00 0.000000e+00  2.662888e-01 3.082863e+00 0.000000e+00  2.676501e-01 3.302485e+00 0.000000e+00  2.923727e-01 3.152150e+00 0.000000e+00  3.526165e-01 3.258370e+00 0.000000e+00  -2.397044e-03 5.278385e-01 0.000000e+00  1.112237e-02 3.495380e+00 0.000000e+00  3.477564e-01 3.208247e+00 0.000000e+00  1.092847e-01 2.528404e+00 0.000000e+00  2.473629e-02 7.784113e-01 0.000000e+00  9.894064e-02 2.319271e+00 0.000000e+00  -2.117108e-01 3.672133e+00 0.000000e+00  6.467779e-03 1.129208e+00 0.000000e+00  2.242759e-02 1.296056e+00 0.000000e+00  1.832509e-01 2.828151e+00 0.000000e+00  1.590057e-01 3.290907e+00 0.000000e+00  5.011967e-02 1.409722e+00 0.000000e+00  5.787854e-01 4.241196e+00 0.000000e+00  2.668961e-01 3.235649e+00 0.000000e+00  -1.810448e-01 3.700885e+00 0.000000e+00  -2.239799e-01 3.855453e+00 0.000000e+00  6.345880e-01 3.158144e+00 0.000000e+00  3.182813e-01 3.178909e+00 0.000000e+00  -1.433379e-01 3.522931e+00 0.000000e+00  1.597171e-01 1.445133e+00 0.000000e+00  3.185704e-02 1.982038e+00 0.000000e+00  -3.200459e-02 3.408571e+00 0.000000e+00  -1.011631e-01 3.504171e+00 0.000000e+00  2.143442e-02 1.637744e+00 0.000000e+00  6.167084e-03 1.926963e+00 0.000000e+00  5.747468e-03 1.590699e+00 0.000000e+00  -1.296844e-01 3.765770e+00 0.000000e+00  2.363241e-02 1.038113e+00 0.000000e+00  -1.865762e-01 3.785299e+00 0.000000e+00  2.768260e-01 3.189368e+00 0.000000e+00  -1.945605e-01 3.610436e+00 0.000000e+00  3.843652e-02 2.263750e+00 0.000000e+00  -3.051606e-01 3.985040e+00 0.000000e+00  1.373627e-01 2.857753e+00 0.000000e+00  7.782151e-01 4.248525e+00 0.000000e+00  2.689375e-01 3.277238e+00 0.000000e+00  8.196399e-02 4.993591e+00 0.000000e+00  -2.298232e-01 5.401774e+00 0.000000e+00  2.164315e-01 3.263276e+00 0.000000e+00  -1.159906e-02 5.492722e+00 0.000000e+00  -1.327673e-01 5.085656e+00 0.000000e+00  -4.326559e-01 5.965211e+00 0.000000e+00  2.037977e-01 5.368791e+00 0.000000e+00  -3.697663e-01 5.955894e+00 0.000000e+00  2.370863e-01 3.337089e+00 0.000000e+00  -5.812532e-01 6.099557e+00 0.000000e+00  -6.795395e-01 6.156822e+00 0.000000e+00  -4.992970e-01 6.080326e+00 0.000000e+00  -6.267491e-01 6.150537e+00 0.000000e+00  -3.312023e-01 5.780397e+00 0.000000e+00  -6.415977e-01 6.128609e+00 0.000000e+00  -6.762613e-01 6.168406e+00 0.000000e+00  6.883494e-02 2.454519e+00 0.000000e+00  5.141915e-02 2.425831e+00 0.000000e+00  4.192287e-02 2.381024e+00 0.000000e+00  4.704626e-02 2.409534e+00 0.000000e+00  -1.449024e-01 3.593489e+00 0.000000e+00  5.660542e-02 6.369877e-01 0.000000e+00  1.786970e-01 2.234316e+00 0.000000e+00  2.123143e-02 3.934181e+00 0.000000e+00  1.886179e-01 1.258791e+00 0.000000e+00  1.190849e-03 9.639814e-01 0.000000e+00  1.747612e-01 1.377592e+00 0.000000e+00  3.377742e-01 3.241571e+00 0.000000e+00  7.552454e-02 3.012768e+00 0.000000e+00  2.503646e-01 2.929125e+00 0.000000e+00  4.367904e-01 2.548308e+00 0.000000e+00  -1.355840e-02 3.104465e-01 0.000000e+00  3.564869e-01 4.024635e+00 0.000000e+00  6.654281e-02 2.027384e+00 0.000000e+00  -8.505954e-02 3.722806e+00 0.000000e+00  -1.604212e-01 3.590552e+00 0.000000e+00  1.588719e-01 2.835353e+00 0.000000e+00  -4.592971e-02 3.463489e+00 0.000000e+00  1.296663e-01 2.521971e+00 0.000000e+00  2.958991e-01 3.142118e+00 0.000000e+00  3.183761e-01 3.182569e+00 0.000000e+00  2.248351e-01 2.987520e+00 0.000000e+00  5.334928e-02 9.127204e-01 0.000000e+00  -9.474226e-02 3.521005e+00 0.000000e+00  1.052952e-03 4.834388e-01 0.000000e+00  -7.902362e-02 3.516986e+00 0.000000e+00  9.583700e-02 2.367231e+00 0.000000e+00  2.650380e-02 5.167837e-01 0.000000e+00  6.900048e-03 6.101417e-01 0.000000e+00  -2.494279e-01 3.756381e+00 0.000000e+00  1.179332e-02 9.793881e-01 0.000000e+00  3.180449e-01 3.279629e+00 0.000000e+00  4.370621e-01 2.205990e+00 0.000000e+00  2.726997e-01 3.109908e+00 0.000000e+00  2.628148e-01 3.134009e+00 0.000000e+00  2.012561e-01 3.258271e+00 0.000000e+00  2.022596e-02 3.411733e+00 0.000000e+00  -1.104674e-03 2.824134e-01 0.000000e+00  9.531598e-02 2.466456e+00 0.000000e+00  1.938734e-01 3.305571e+00 0.000000e+00  4.175998e-02 1.682022e+00 0.000000e+00  7.523369e-03 1.403691e+00 0.000000e+00  -8.673814e-03 7.357225e-01 0.000000e+00  7.845790e-02 3.340975e+00 0.000000e+00  -1.700296e-01 3.680338e+00 0.000000e+00  5.649313e-02 6.256524e-01 0.000000e+00  6.809868e-01 3.806542e+00 0.000000e+00  -2.282832e-02 2.477889e-01 0.000000e+00  1.216320e-01 2.662483e+00 0.000000e+00  3.475706e-02 1.878998e+00 0.000000e+00  -1.911913e-01 3.674938e+00 0.000000e+00  -2.080871e-01 3.637667e+00 0.000000e+00  2.337681e-02 1.148982e+00 0.000000e+00  2.859546e-01 3.219299e+00 0.000000e+00  3.032860e-01 1.828222e+00 0.000000e+00  3.165673e-01 3.190348e+00 0.000000e+00  1.335322e-01 1.218740e+00 0.000000e+00  2.273807e-02 1.482086e+00 0.000000e+00  -1.541012e-01 3.550723e+00 0.000000e+00  1.135502e-01 1.318382e+00 0.000000e+00  -1.766038e-01 3.856904e+00 0.000000e+00  -2.629551e-01 3.893126e+00 0.000000e+00  5.309871e-01 2.558357e+00 0.000000e+00  -1.103458e-01 3.467931e+00 0.000000e+00  5.397277e-02 2.157197e+00 0.000000e+00  -2.115101e-01 3.811507e+00 0.000000e+00  -1.607882e-01 3.783396e+00 0.000000e+00  -1.860178e-01 3.744595e+00 0.000000e+00  5.450412e-01 4.741775e+00 0.000000e+00  -1.769624e-01 3.563717e+00 0.000000e+00  1.065635e-02 3.358254e+00 0.000000e+00  1.989985e-02 2.092081e+00 0.000000e+00  2.275029e-02 2.021222e+00 0.000000e+00  -3.188234e-04 1.763968e+00 0.000000e+00  1.317331e-02 1.426821e+00 0.000000e+00  2.511343e-01 3.208934e+00 0.000000e+00  1.652891e-01 3.024093e+00 0.000000e+00  -3.010757e-01 4.087035e+00 0.000000e+00  1.419330e-02 2.169128e+00 0.000000e+00  -2.127753e-01 3.628073e+00 0.000000e+00  5.085841e-02 2.353464e+00 0.000000e+00  7.755640e-01 4.553709e+00 0.000000e+00  -3.321632e-01 3.930422e+00 0.000000e+00  7.379713e-01 3.922720e+00 0.000000e+00  2.712928e-01 3.262460e+00 0.000000e+00  7.117680e-02 5.247511e+00 0.000000e+00  -1.390188e-01 4.883760e+00 0.000000e+00  2.182454e-01 3.313458e+00 0.000000e+00  -2.491502e-01 5.597100e+00 0.000000e+00  2.645751e-01 3.308048e+00 0.000000e+00  -1.853018e-01 5.766401e+00 0.000000e+00  -2.330813e-01 5.232347e+00 0.000000e+00  -3.317752e-01 5.976084e+00 0.000000e+00  -6.570571e-01 6.163324e+00 0.000000e+00  -3.581117e-01 5.837762e+00 0.000000e+00  -6.823283e-01 6.166096e+00 0.000000e+00  2.362437e-01 3.352156e+00 0.000000e+00  6.497094e-02 2.463188e+00 0.000000e+00  3.917663e-02 2.362090e+00 0.000000e+00  5.825292e-02 3.606333e+00 0.000000e+00  1.477404e-01 1.556203e+00 0.000000e+00  4.630585e-01 3.298639e+00 0.000000e+00  3.467085e-01 3.213567e+00 0.000000e+00  6.647290e-03 6.868104e-01 0.000000e+00  3.758428e-01 2.909878e+00 0.000000e+00  -1.366666e-01 3.568533e+00 0.000000e+00  -3.808139e-02 3.572043e+00 0.000000e+00  2.926450e-01 1.778165e+00 0.000000e+00  6.682644e-02 5.763882e-01 0.000000e+00  1.496890e-01 2.761738e+00 0.000000e+00  8.926143e-03 1.102376e+00 0.000000e+00  8.626594e-02 2.168163e+00 0.000000e+00  -6.462545e-03 4.095794e-01 0.000000e+00  3.278403e-01 3.220663e+00 0.000000e+00  9.015949e-02 3.386676e+00 0.000000e+00  2.704564e-03 3.110053e-01 0.000000e+00  -3.680633e-03 1.750794e-01 0.000000e+00  -1.688323e-01 3.651902e+00 0.000000e+00  3.558219e-01 3.235388e+00 0.000000e+00  1.115359e-01 9.135902e-01 0.000000e+00  3.016930e-01 1.701454e+00 0.000000e+00  4.913177e-02 3.355371e-01 0.000000e+00  2.458105e-01 1.462165e+00 0.000000e+00  4.933988e-01 2.532637e+00 0.000000e+00  1.303380e-01 2.677696e+00 0.000000e+00  -5.375844e-02 3.481815e+00 0.000000e+00  1.144984e-01 4.142688e+00 0.000000e+00  -9.527961e-04 7.508587e-01 0.000000e+00  3.546208e-03 9.450208e-01 0.000000e+00  3.045326e-01 3.241027e+00 0.000000e+00  8.913040e-02 3.314887e+00 0.000000e+00  2.433134e-01 3.263721e+00 0.000000e+00  -1.393875e-01 3.552757e+00 0.000000e+00  5.564430e-02 2.031245e+00 0.000000e+00  2.556436e-01 3.100965e+00 0.000000e+00  8.690914e-02 2.392993e+00 0.000000e+00  4.159074e-01 4.421660e+00 0.000000e+00  2.614895e-01 3.226507e+00 0.000000e+00  4.332575e-02 8.647911e-01 0.000000e+00  6.905916e-03 1.307012e+00 0.000000e+00  -1.336372e-03 9.284070e-01 0.000000e+00  -2.010522e-01 3.901279e+00 0.000000e+00  3.235616e-02 6.673936e-01 0.000000e+00  2.097770e-02 3.390979e+00 0.000000e+00  1.879412e-01 2.900794e+00 0.000000e+00  -1.849015e-01 3.635332e+00 0.000000e+00  -9.500745e-02 3.962513e+00 0.000000e+00  -2.158693e-01 3.721124e+00 0.000000e+00  7.030492e-01 3.620875e+00 0.000000e+00  -1.876149e-01 3.623367e+00 0.000000e+00  3.924595e-01 2.064160e+00 0.000000e+00  6.131438e-01 3.682905e+00 0.000000e+00  -1.241004e-01 3.815710e+00 0.000000e+00  1.890107e-02 1.763230e+00 0.000000e+00  1.072911e-02 1.533512e+00 0.000000e+00  6.874193e-01 4.413457e+00 0.000000e+00  1.129010e-01 2.570316e+00 0.000000e+00  1.888127e-01 2.952512e+00 0.000000e+00  -1.363083e-02 5.779926e-01 0.000000e+00  -1.167045e-01 3.506632e+00 0.000000e+00  2.087937e-01 1.565700e+00 0.000000e+00  6.373869e-02 1.187597e+00 0.000000e+00  2.322293e-01 3.135715e+00 0.000000e+00  -9.368933e-02 3.469765e+00 0.000000e+00  9.673989e-02 1.246816e+00 0.000000e+00  2.097224e-01 1.540553e+00 0.000000e+00  -1.910857e-01 3.595171e+00 0.000000e+00  -2.441455e-01 3.691899e+00 0.000000e+00  6.956206e-02 2.363928e+00 0.000000e+00  -2.533338e-01 3.833474e+00 0.000000e+00  -1.632827e-01 3.532367e+00 0.000000e+00  2.872898e-01 3.154146e+00 0.000000e+00  1.417187e-02 1.263244e+00 0.000000e+00  1.418507e-02 1.853603e+00 0.000000e+00  -2.340447e-01 3.770560e+00 0.000000e+00  2.789550e-01 3.216327e+00 0.000000e+00  5.550715e-03 1.731996e+00 0.000000e+00  -1.954357e-01 3.838055e+00 0.000000e+00  1.656557e-01 3.255158e+00 0.000000e+00  -5.896785e-02 3.411285e+00 0.000000e+00  -3.994954e-03 1.946531e+00 0.000000e+00  8.351640e-03 1.454214e+00 0.000000e+00  -3.091840e-01 3.892027e+00 0.000000e+00  1.020691e-01 2.534882e+00 0.000000e+00  2.866767e-01 3.175810e+00 0.000000e+00  1.251189e-01 2.765886e+00 0.000000e+00  1.796058e-01 1.460454e+00 0.000000e+00  4.571123e-01 2.264563e+00 0.000000e+00  5.969792e-01 5.088748e+00 0.000000e+00  -2.525347e-01 4.064502e+00 0.000000e+00  4.283564e-03