<?xml version="1.0"?>
<VTKFile type="UnstructuredGrid"  version="0.1"  >
<UnstructuredGrid>
<Piece  NumberOfPoints="2868" NumberOfCells="5400">
<Points>
<DataArray  type="Float32"  NumberOfComponents="3"  format="ascii">0.534923 0.326073 0  0.510642 0.314196 0  0.466125 0.293082 0  0.436448 0.281205 0  0.409468 0.275927 0  0.368998 0.270648 0  0.35281 0.275927 0  0.381139 0.302319 0  0.405421 0.326073 0  0.410817 0.33531 0  0.408119 0.349826 0  0.400025 0.357744 0  0.375743 0.368301 0  0.329878 0.392055 0  0.297502 0.432963 0  0.282663 0.476511 0  0.285361 0.524018 0  0.298851 0.572845 0  0.317737 0.604516 0  0.337972 0.636187 0  0.360904 0.674457 0  0.368998 0.69953 0  0.359555 0.721964 0  0.360904 0.757594 0  0.370347 0.766831 0  0.381139 0.762872 0  0.390582 0.741758 0  0.404072 0.720644 0  0.424307 0.707448 0  0.447239 0.702169 0  0.480964 0.704808 0  0.479615 0.688973 0  0.468823 0.675776 0  0.447239 0.669178 0  0.428354 0.669178 0  0.410817 0.6639 0  0.404072 0.653343 0  0.395978 0.628269 0  0.387884 0.59132 0  0.389233 0.576804 0  0.397327 0.557009 0  0.410817 0.547772 0  0.424307 0.546452 0  0.437797 0.55305 0  0.44589 0.566247 0  0.441843 0.582082 0  0.439145 0.597918 0  0.449937 0.609795 0  0.468823 0.603196 0  0.479615 0.59 0  0.489058 0.570205 0  0.494454 0.546452 0  0.505246 0.522699 0  0.522783 0.509502 0  0.55246 0.494986 0  0.586185 0.484429 0  0.615863 0.48047 0  0.64554 0.473872 0  0.667124 0.461995 0  0.683312 0.451438 0  0.696802 0.435603 0  0.703547 0.417128 0  0.71164 0.393374 0  0.718385 0.37226 0  0.72513 0.364342 0  0.739969 0.353785 0  0.745365 0.344548 0  0.745365 0.327393 0  0.737271 0.318155 0  0.718385 0.316835 0  0.700849 0.319475 0  0.677916 0.318155 0  0.650936 0.316835 0  0.610467 0.318155 0  0.57944 0.324753 0  0.559205 0.328712 0  0.53897 0.326073 0  1 1 0  1 0 0  0 0 0  0 1 0  0.532238 0.32476 0  0.528748 0.323052 0  0.52421 0.320833 0  0.518311 0.317947 0  0.503447 0.310783 0  0.494093 0.306347 0  0.481933 0.30058 0  0.452151 0.28749 0  0.392327 0.273691 0  0.379141 0.271971 0  0.360474 0.283066 0  0.369797 0.291752 0  0.391424 0.31238 0  0.399335 0.32012 0  0.40958 0.341964 0  0.393939 0.36039 0  0.386028 0.36383 0  0.364248 0.374254 0  0.349304 0.381994 0  0.315801 0.409841 0  0.292986 0.551616 0  0.350934 0.657818 0  0.360127 0.737055 0  0.360566 0.748664 0  0.385245 0.753692 0  0.396447 0.732578 0  0.466301 0.703661 0  0.459439 0.672908 0  0.418442 0.666195 0  0.400553 0.642441 0  0.39255 0.612619 0  0.389913 0.60058 0  0.392752 0.568197 0  0.444131 0.573132 0  0.458149 0.606926 0  0.500554 0.533026 0  0.571522 0.489019 0  0.632637 0.476741 0  0.689177 0.444553 0  0.708121 0.403702 0  0.715453 0.38144 0  0.732406 0.359166 0  0.745365 0.337089 0  0.72906 0.317581 0  0.629879 0.317522 0  0.59293 0.321884 0  0.568003 0.326991 0  0.55202 0.327775 0  0.546493 0.327054 0  0.542241 0.326499 0  1 0.9 0  1 0.8 0  1 0.7 0  1 0.6 0  1 0.5 0  1 0.4 0  1 0.3 0  1 0.2 0  1 0.1 0  0.9 0 0  0.8 0 0  0.7 0 0  0.6 0 0  0.5 0 0  0.4 0 0  0.3 0 0  0.2 0 0  0.1 0 0  0.1 1 0  0.2 1 0  0.3 1 0  0.4 1 0  0.5 1 0  0.6 1 0  0.7 1 0  0.8 1 0  0.9 1 0  0 0.1 0  0 0.2 0  0 0.3 0  0 0.4 0  0 0.5 0  0 0.6 0  0 0.7 0  0 0.8 0  0 0.9 0  0.535686 0.503191 0  0.753987 0.733359 0  0.167145 0.741436 0  0.173378 0.257204 0  0.733497 0.159862 0  0.554096 0.15788 0  0.849187 0.479053 0  0.488793 0.838452 0  0.138507 0.5592 0  0.30686 0.154944 0  0.348904 0.890523 0  0.058006 0.065099 0  0.069849 0.937917 0  0.93633 0.939704 0  0.934625 0.053613 0  0.343397 0.333452 0  0.473272 0.639943 0  0.433266 0.638072 0  0.415174 0.58269 0  0.533435 0.545042 0  0.390848 0.340652 0  0.53655 0.320242 0  0.127966 0.393775 0  0.83861 0.850455 0  0.635242 0.85513 0  0.852158 0.633441 0  0.653427 0.626848 0  0.861226 0.24292 0  0.166128 0.12976 0  0.216875 0.869871 0  0.458305 0.11179 0  0.84446 0.101633 0  0.202024 0.642528 0  0.644825 0.115855 0  0.671342 0.218358 0  0.251354 0.286186 0  0.262388 0.75153 0  0.063044 0.751571 0  0.068189 0.242962 0  0.435781 0.905395 0  0.934144 0.451133 0  0.568393 0.237622 0  0.814984 0.395506 0  0.752951 0.517227 0  0.456254 0.780699 0  0.073352 0.531116 0  0.337731 0.206071 0  0.363213 0.960371 0  0.330742 0.363592 0  0.516613 0.55705 0  0.369057 0.332992 0  0.500926 0.617309 0  0.498004 0.665534 0  0.412142 0.61178 0  0.454233 0.636604 0  0.422782 0.567496 0  0.541193 0.52148 0  0.439761 0.65557 0  0.5163 0.533672 0  0.414775 0.64562 0  0.40073 0.576135 0  0.430362 0.588034 0  0.385432 0.351492 0  0.400298 0.335397 0  0.398325 0.348194 0  0.528702 0.314885 0  0.540814 0.322334 0  0.534477 0.322953 0  0.619095 0.743583 0  0.885162 0.737972 0  0.08076 0.668849 0  0.90734 0.36634 0  0.094687 0.868937 0  0.759838 0.912152 0  0.901518 0.540898 0  0.747285 0.607479 0  0.229182 0.071641 0  0.069154 0.450091 0  0.244775 0.203309 0  0.076534 0.331755 0  0.897847 0.167826 0  0.578909 0.911415 0  0.077133 0.146341 0  0.477215 0.203448 0  0.922631 0.869341 0  0.517415 0.074785 0  0.297026 0.827793 0  0.783271 0.246505 0  0.74519 0.061079 0  0.36033 0.069068 0  0.210313 0.475228 0  0.859426 0.928758 0  0.574548 0.609182 0  0.243069 0.383398 0  0.283099 0.934598 0  0.417416 0.843141 0  0.643942 0.553164 0  0.112687 0.079336 0  0.281357 0.658386 0  0.765043 0.436177 0  0.611361 0.198486 0  0.234496 0.58911 0  0.206479 0.702638 0  0.679608 0.155818 0  0.62682 0.259978 0  0.690538 0.264164 0  0.448938 0.956308 0  0.808154 0.328403 0  0.379583 0.91913 0  0.308083 0.297769 0  0.312358 0.730249 0  0.563101 0.278576 0  0.435597 0.746198 0  0.385475 0.225229 0  0.572248 0.518034 0  0.357864 0.35422 0  0.497647 0.641694 0  0.458101 0.655768 0  0.360474 0.310727 0  0.467038 0.620139 0  0.47798 0.659909 0  0.41102 0.628072 0  0.48324 0.609015 0  0.427544 0.617941 0  0.388633 0.328253 0  0.405336 0.599404 0  0.408351 0.565178 0  0.42395 0.600985 0  0.431562 0.576523 0  0.424905 0.655198 0  0.398064 0.58782 0  0.427739 0.557934 0  0.519291 0.303443 0  0.53142 0.320293 0  0.5449 0.323642 0  0.537166 0.323513 0  0.153974 0.920841 0  0.918186 0.67343 0  0.759946 0.820588 0  0.537526 0.783091 0  0.816532 0.545843 0  0.813991 0.178083 0  0.836774 0.702023 0  0.149815 0.318856 0  0.662287 0.923338 0  0.680146 0.791192 0  0.708961 0.663172 0  0.937278 0.287318 0  0.574622 0.688166 0  0.589474 0.076262 0  0.502822 0.926683 0  0.222269 0.811068 0  0.380457 0.164786 0  0.15321 0.684154 0  0.458063 0.051413 0  0.161702 0.056026 0  0.199351 0.198818 0  0.298946 0.095532 0  0.902465 0.795949 0  0.121139 0.791477 0  0.906269 0.112287 0  0.056109 0.822332 0  0.512172 0.13237 0  0.940964 0.741805 0  0.888887 0.408777 0  0.354543 0.825964 0  0.808736 0.068638 0  0.068507 0.394071 0  0.719105 0.563843 0  0.247287 0.149664 0  0.293062 0.237128 0  0.240524 0.434997 0  0.141255 0.623289 0  0.945202 0.160621 0  0.502914 0.247629 0  0.144669 0.480811 0  0.665025 0.060817 0  0.728047 0.224344 0  0.861995 0.313312 0  0.200068 0.534235 0  0.253262 0.965623 0  0.893804 0.49307 0  0.604391 0.572456 0  0.947088 0.345347 0  0.439372 0.227307 0  0.629847 0.159823 0  0.273405 0.880181 0  0.302744 0.776823 0  0.781502 0.295365 0  0.275342 0.349602 0  0.728385 0.472798 0  0.229136 0.246478 0  0.807794 0.480346 0  0.709476 0.112786 0  0.275506 0.694991 0  0.771674 0.394419 0  0.449715 0.861802 0  0.419159 0.799696 0  0.674851 0.503139 0  0.280443 0.61016 0  0.572443 0.192538 0  0.393113 0.87525 0  0.405555 0.948428 0  0.330942 0.934103 0  0.540509 0.597101 0  0.312763 0.668931 0  0.254368 0.540179 0  0.595265 0.25915 0  0.606679 0.234099 0  0.657131 0.279138 0  0.722458 0.279478 0  0.333 0.308056 0  0.351529 0.246142 0  0.455714 0.725794 0  0.585239 0.295143 0  0.340062 0.72492 0  0.545593 0.293773 0  0.555449 0.545426 0  0.414311 0.737314 0  0.590854 0.502323 0  0.350507 0.368444 0  0.484423 0.625665 0  0.483899 0.674542 0  0.378137 0.317274 0  0.446416 0.646404 0  0.373532 0.347654 0  0.446876 0.619769 0  0.466106 0.666068 0  0.437545 0.609254 0  0.434988 0.565726 0  0.41462 0.656829 0  0.418803 0.556961 0  0.398425 0.327446 0  0.517803 0.310421 0  0.549516 0.322918 0  0.57701 0.842889 0  0.829127 0.773906 0  0.643235 0.684732 0  0.134281 0.207734 0  0.865997 0.055966 0  0.680959 0.723345 0  0.165229 0.841555 0  0.54558 0.959672 0  0.783726 0.656439 0  0.913315 0.595533 0  0.699439 0.860667 0  0.785839 0.125076 0  0.551673 0.037713 0  0.920097 0.223214 0  0.206406 0.299726 0  0.087064 0.596401 0  0.935644 0.394252 0  0.964557 0.252582 0  0.230124 0.928346 0  0.120579 0.271764 0  0.857215 0.524082 0  0.767098 0.555147 0  0.936094 0.507131 0  0.804064 0.59585 0  0.700565 0.608273 0  0.429773 0.174231 0  0.117746 0.727333 0  0.538962 0.730231 0  0.862761 0.359173 0  0.821444 0.284046 0  0.193552 0.35818 0  0.234923 0.505555 0  0.193209 0.421217 0  0.220144 0.755896 0  0.594015 0.131642 0  0.283813 0.195855 0  0.517519 0.213961 0  0.553509 0.639116 0  0.280391 0.378018 0  0.852183 0.436817 0  0.746983 0.197173 0  0.821806 0.221318 0  0.449853 0.828453 0  0.883758 0.453926 0  0.183484 0.589542 0  0.348384 0.129314 0  0.255254 0.838525 0  0.504849 0.798516 0  0.320344 0.863432 0  0.611669 0.525425 0  0.265864 0.804962 0  0.72056 0.521442 0  0.613372 0.610122 0  0.481262 0.881068 0  0.655778 0.191988 0  0.701921 0.196918 0  0.565826 0.573181 0  0.46914 0.240927 0  0.343219 0.173284 0  0.888786 0.278502 0  0.244113 0.675093 0  0.739546 0.417914 0  0.784023 0.355942 0  0.326805 0.265549 0  0.248616 0.634948 0  0.789183 0.413964 0  0.764107 0.476606 0  0.32086 0.698956 0  0.334735 0.791464 0  0.53448 0.258468 0  0.395208 0.824575 0  0.309962 0.638947 0  0.263264 0.22712 0  0.756395 0.267254 0  0.639281 0.224663 0  0.358631 0.85116 0  0.309751 0.332089 0  0.663461 0.246436 0  0.424083 0.871774 0  0.269645 0.445719 0  0.272183 0.572741 0  0.624492 0.294638 0  0.717827 0.250266 0  0.408215 0.763744 0  0.485997 0.274924 0  0.288138 0.274311 0  0.410524 0.242487 0  0.741513 0.385737 0  0.691284 0.483519 0  0.515531 0.581849 0  0.463005 0.753402 0  0.681919 0.
[...]
<PointData  Vectors="u"> 
<DataArray  type="Float32"  Name="u"  NumberOfComponents="3" format="ascii">9.164148e-02 4.949489e+00 0.000000e+00  1.338556e-01 5.086188e+00 0.000000e+00  2.239648e-01 5.296633e+00 0.000000e+00  2.604865e-01 5.456801e+00 0.000000e+00  2.819632e-01 5.634825e+00 0.000000e+00  3.038353e-01 6.000595e+00 0.000000e+00  3.755982e-01 6.324164e+00 0.000000e+00  4.573060e-01 6.721866e+00 0.000000e+00  5.667023e-01 6.808754e+00 0.000000e+00  5.970352e-01 6.808706e+00 0.000000e+00  6.356374e-01 6.808134e+00 0.000000e+00  6.498367e-01 6.797743e+00 0.000000e+00  6.602601e-01 6.699785e+00 0.000000e+00  5.997576e-01 6.503857e+00 0.000000e+00  4.409670e-01 6.477527e+00 0.000000e+00  2.584060e-01 6.548418e+00 0.000000e+00  5.924893e-02 6.671599e+00 0.000000e+00  -1.296912e-01 6.828294e+00 0.000000e+00  -2.401801e-01 6.952785e+00 0.000000e+00  -3.129262e-01 7.057717e+00 0.000000e+00  -3.553011e-01 7.139257e+00 0.000000e+00  -3.662043e-01 7.160421e+00 0.000000e+00  -3.780165e-01 7.178536e+00 0.000000e+00  -4.518922e-01 7.262232e+00 0.000000e+00  -5.193512e-01 7.356234e+00 0.000000e+00  -5.783157e-01 7.459878e+00 0.000000e+00  -6.272523e-01 7.579889e+00 0.000000e+00  -6.145972e-01 7.673130e+00 0.000000e+00  -5.813820e-01 7.783447e+00 0.000000e+00  -5.475772e-01 7.934397e+00 0.000000e+00  -4.739504e-01 8.534654e+00 0.000000e+00  -4.520470e-01 9.224587e+00 0.000000e+00  -4.174625e-01 9.892076e+00 0.000000e+00  -4.355581e-01 1.057840e+01 0.000000e+00  -4.821414e-01 1.093324e+01 0.000000e+00  -5.483957e-01 1.113091e+01 0.000000e+00  -6.095571e-01 1.121380e+01 0.000000e+00  -7.770871e-01 1.141337e+01 0.000000e+00  -1.021391e+00 1.161969e+01 0.000000e+00  -1.065303e+00 1.164610e+01 0.000000e+00  -1.087197e+00 1.167078e+01 0.000000e+00  -1.083522e+00 1.168858e+01 0.000000e+00  -1.078348e+00 1.170142e+01 0.000000e+00  -1.064174e+00 1.170278e+01 0.000000e+00  -1.018740e+00 1.168749e+01 0.000000e+00  -9.057916e-01 1.166006e+01 0.000000e+00  -6.596506e-01 1.153769e+01 0.000000e+00  -1.748590e-01 1.116677e+01 0.000000e+00  4.705661e-01 1.073489e+01 0.000000e+00  1.000999e+00 1.047241e+01 0.000000e+00  1.497761e+00 1.019356e+01 0.000000e+00  1.790323e+00 9.932771e+00 0.000000e+00  1.825071e+00 9.679813e+00 0.000000e+00  1.748061e+00 9.357125e+00 0.000000e+00  1.578945e+00 8.604168e+00 0.000000e+00  1.402282e+00 7.622303e+00 0.000000e+00  1.304191e+00 6.684167e+00 0.000000e+00  1.186332e+00 5.647441e+00 0.000000e+00  1.045679e+00 4.872492e+00 0.000000e+00  9.308651e-01 4.307504e+00 0.000000e+00  7.940886e-01 3.777798e+00 0.000000e+00  6.735335e-01 3.434460e+00 0.000000e+00  5.259226e-01 3.139312e+00 0.000000e+00  4.101415e-01 2.965907e+00 0.000000e+00  3.615930e-01 2.893140e+00 0.000000e+00  2.709016e-01 2.709673e+00 0.000000e+00  2.025644e-01 2.603824e+00 0.000000e+00  9.691518e-02 2.564671e+00 0.000000e+00  3.492023e-02 2.662244e+00 0.000000e+00  2.813903e-03 2.891220e+00 0.000000e+00  -2.433079e-03 3.082378e+00 0.000000e+00  -1.803659e-02 3.326002e+00 0.000000e+00  -3.376292e-02 3.640784e+00 0.000000e+00  -3.023315e-02 4.152011e+00 0.000000e+00  1.748379e-02 4.548125e+00 0.000000e+00  5.774265e-02 4.760522e+00 0.000000e+00  8.604751e-02 4.924213e+00 0.000000e+00  0.000000e+00 0.000000e+00 0.000000e+00  0.000000e+00 0.000000e+00 0.000000e+00  6.932317e-01 6.404672e+00 0.000000e+00  -2.082618e-01 7.049342e+00 0.000000e+00  9.360692e-02 4.963912e+00 0.000000e+00  9.817835e-02 4.984512e+00 0.000000e+00  1.057676e-01 5.011214e+00 0.000000e+00  1.172689e-01 5.044779e+00 0.000000e+00  1.499738e-01 5.122733e+00 0.000000e+00  1.706211e-01 5.167425e+00 0.000000e+00  1.956574e-01 5.222909e+00 0.000000e+00  2.432994e-01 5.366800e+00 0.000000e+00  2.917131e-01 5.765004e+00 0.000000e+00  2.976223e-01 5.882102e+00 0.000000e+00  3.804615e-01 6.530423e+00 0.000000e+00  4.124248e-01 6.636065e+00 0.000000e+00  5.039611e-01 6.775198e+00 0.000000e+00  5.411475e-01 6.800565e+00 0.000000e+00  6.155776e-01 6.808633e+00 0.000000e+00  6.539693e-01 6.781203e+00 0.000000e+00  6.583078e-01 6.749563e+00 0.000000e+00  6.561881e-01 6.641416e+00 0.000000e+00  6.404181e-01 6.572198e+00 0.000000e+00  5.370062e-01 6.475432e+00 0.000000e+00  -5.179252e-02 6.757821e+00 0.000000e+00  -3.414144e-01 7.110581e+00 0.000000e+00  -4.013744e-01 7.204231e+00 0.000000e+00  -4.252743e-01 7.229181e+00 0.000000e+00  -6.144616e-01 7.524489e+00 0.000000e+00  -6.261233e-01 7.622600e+00 0.000000e+00  -5.244275e-01 8.127504e+00 0.000000e+00  -4.099319e-01 1.024066e+01 0.000000e+00  -5.203401e-01 1.106039e+01 0.000000e+00  -6.755975e-01 1.129588e+01 0.000000e+00  -8.928807e-01 1.152340e+01 0.000000e+00  -9.746944e-01 1.158841e+01 0.000000e+00  -1.079666e+00 1.165804e+01 0.000000e+00  -9.836147e-01 1.168193e+01 0.000000e+00  1.247446e-01 1.098807e+01 0.000000e+00  1.834859e+00 9.785674e+00 0.000000e+00  1.477369e+00 8.058728e+00 0.000000e+00  1.238789e+00 6.109873e+00 0.000000e+00  8.749010e-01 4.068212e+00 0.000000e+00  5.887585e-01 3.255258e+00 0.000000e+00  4.575585e-01 3.029060e+00 0.000000e+00  3.204391e-01 2.813374e+00 0.000000e+00  1.565731e-01 2.567428e+00 0.000000e+00  1.705081e-02 2.764958e+00 0.000000e+00  -3.568634e-02 3.900526e+00 0.000000e+00  -6.880684e-03 4.383413e+00 0.000000e+00  4.064018e-02 4.676326e+00 0.000000e+00  6.607547e-02 4.820006e+00 0.000000e+00  7.406107e-02 4.866061e+00 0.000000e+00  8.067038e-02 4.899624e+00 0.000000e+00  0.000000e+00 0.000000e+00 0.000000e+00  0.000000e+00 0.000000e+00 0.000000e+00  0.000000e+00 0.000000e+00 0.000000e+00  0.000000e+00 0.000000e+00 0.000000e+00  0.000000e+00 0.000000e+00 0.000000e+00  0.000000e+00 0.000000e+00 0.000000e+00  0.000000e+00 0.000000e+00 0.000000e+00  0.000000e+00 0.000000e+00 0.000000e+00  0.000000e+00 0.000000e+00 0.000000e+00  9.644353e-03 1.019034e+00 0.000000e+00  3.069938e-02 2.036948e+00 0.000000e+00  7.221097e-02 3.025437e+00 0.000000e+00  1.426036e-01 3.943661e+00 0.000000e+00  2.394391e-01 4.745566e+00 0.000000e+00  3.530382e-01 5.402984e+00 0.000000e+00  4.766657e-01 5.891314e+00 0.000000e+00  5.877400e-01 6.195566e+00 0.000000e+00  6.624483e-01 6.350219e+00 0.000000e+00  -2.329069e-01 7.101347e+00 0.000000e+00  -2.732003e-01 7.209157e+00 0.000000e+00  -2.973737e-01 7.332150e+00 0.000000e+00  -2.575234e-01 7.376256e+00 0.000000e+00  -1.268128e-01 7.149930e+00 0.000000e+00  3.571541e-02 6.468428e+00 0.000000e+00  1.307455e-01 5.316655e+00 0.000000e+00  1.246102e-01 3.815412e+00 0.000000e+00  5.822074e-02 2.060894e+00 0.000000e+00  7.399768e-01 6.429308e+00 0.000000e+00  8.008236e-01 6.470173e+00 0.000000e+00  8.039749e-01 6.514753e+00 0.000000e+00  7.076777e-01 6.568815e+00 0.000000e+00  5.219924e-01 6.645918e+00 0.000000e+00  2.999234e-01 6.747527e+00 0.000000e+00  9.704079e-02 6.856966e+00 0.000000e+00  -5.840068e-02 6.952647e+00 0.000000e+00  -1.611773e-01 7.019964e+00 0.000000e+00  1.681101e+00 9.057642e+00 0.000000e+00  5.589536e-01 4.273561e+00 0.000000e+00  -1.546567e-01 6.968022e+00 0.000000e+00  7.351188e-01 6.460624e+00 0.000000e+00  1.329963e-02 2.761559e+00 0.000000e+00  1.483804e-01 4.496357e+00 0.000000e+00  1.494672e-01 1.807430e+00 0.000000e+00  -2.076214e-01 7.569349e+00 0.000000e+00  2.305662e-01 6.692518e+00 0.000000e+00  4.910590e-01 6.090084e+00 0.000000e+00  -3.611312e-01 7.399426e+00 0.000000e+00  6.981516e-01 6.407708e+00 0.000000e+00  -2.128286e-01 7.056208e+00 0.000000e+00  2.918486e-02 1.315726e+00 0.000000e+00  3.651990e-03 6.703690e-01 0.000000e+00  6.112250e-01 6.563091e+00 0.000000e+00  -5.553092e-02 1.014599e+01 0.000000e+00  -4.386992e-01 1.102504e+01 0.000000e+00  -9.876102e-01 1.164720e+01 0.000000e+00  1.575428e+00 9.325048e+00 0.000000e+00  6.120209e-01 6.769749e+00 0.000000e+00  9.422851e-02 4.932183e+00 0.000000e+00  6.417592e-01 6.536461e+00 0.000000e+00  1.817839e-01 3.014195e+00 0.000000e+00  2.582314e-01 6.306994e+00 0.000000e+00  3.080177e-01 2.179360e+00 0.000000e+00  1.093030e+00 6.093724e+00 0.000000e+00  -1.878966e-02 1.441763e+00 0.000000e+00  6.691204e-01 6.370510e+00 0.000000e+00  -2.879874e-01 7.160294e+00 0.000000e+00  2.726297e-01 5.164852e+00 0.000000e+00  7.616121e-03 1.605065e+00 0.000000e+00  -6.293043e-02 6.853562e+00 0.000000e+00  7.591312e-02 3.628468e+00 0.000000e+00  4.123560e-03 3.420167e+00 0.000000e+00  6.903768e-01 6.438210e+00 0.000000e+00  -2.847955e-01 7.093825e+00 0.000000e+00  -5.127396e-02 6.918524e+00 0.000000e+00  7.828067e-01 6.485433e+00 0.000000e+00  -2.775143e-01 7.464598e+00 0.000000e+00  6.500668e-05 6.416964e-01 0.000000e+00  8.827249e-02 4.491904e+00 0.000000e+00  8.523771e-02 2.094882e+00 0.000000e+00  5.503279e-01 3.373798e+00 0.000000e+00  -4.056119e-01 7.782763e+00 0.000000e+00  3.796083e-01 6.667031e+00 0.000000e+00  4.319530e-01 6.068605e+00 0.000000e+00  -2.955418e-01 7.398986e+00 0.000000e+00  6.328646e-01 6.533551e+00 0.000000e+00  1.537913e+00 9.721806e+00 0.000000e+00  5.907103e-01 6.673663e+00 0.000000e+00  5.253330e-01 9.855192e+00 0.000000e+00  9.081593e-02 9.290092e+00 0.000000e+00  -7.650062e-01 1.148443e+01 0.000000e+00  -2.295426e-01 1.061819e+01 0.000000e+00  -1.045947e+00 1.168178e+01 0.000000e+00  1.633780e+00 9.031521e+00 0.000000e+00  -4.336203e-01 1.079105e+01 0.000000e+00  1.728620e+00 9.603230e+00 0.000000e+00  -5.709284e-01 1.119139e+01 0.000000e+00  -1.050655e+00 1.165505e+01 0.000000e+00  -8.867456e-01 1.162706e+01 0.000000e+00  6.398033e-01 6.748130e+00 0.000000e+00  5.958340e-01 6.797439e+00 0.000000e+00  6.326502e-01 6.792815e+00 0.000000e+00  1.116300e-01 4.976788e+00 0.000000e+00  8.559990e-02 4.904368e+00 0.000000e+00  9.441483e-02 4.949461e+00 0.000000e+00  6.145960e-01 6.789528e+00 0.000000e+00  1.720325e-01 1.947667e+00 0.000000e+00  6.428363e-02 6.830963e+00 0.000000e+00  -2.775248e-02 9.629312e-01 0.000000e+00  -1.948622e-01 7.033677e+00 0.000000e+00  1.956725e-01 4.427260e+00 0.000000e+00  1.455592e-01 1.180084e+00 0.000000e+00  7.303701e-01 3.926095e+00 0.000000e+00  5.730617e-01 6.202623e+00 0.000000e+00  5.699285e-01 6.593402e+00 0.000000e+00  6.362062e-01 6.345622e+00 0.000000e+00  7.478089e-01 6.522297e+00 0.000000e+00  -6.582088e-03 1.053620e+00 0.000000e+00  4.510637e-02 6.811716e+00 0.000000e+00  7.374319e-01 6.438669e+00 0.000000e+00  2.418327e-01 5.136933e+00 0.000000e+00  4.905811e-02 1.513924e+00 0.000000e+00  2.131942e-01 4.694349e+00 0.000000e+00  -3.679003e-01 7.250041e+00 0.000000e+00  -4.445350e-04 2.258734e+00 0.000000e+00  4.205141e-02 2.609795e+00 0.000000e+00  3.997695e-01 5.706642e+00 0.000000e+00  3.754025e-01 6.569149e+00 0.000000e+00  1.011527e-01 2.743936e+00 0.000000e+00  1.141388e+00 8.190628e+00 0.000000e+00  6.069164e-01 6.486937e+00 0.000000e+00  -3.140928e-01 7.301151e+00 0.000000e+00  -3.876313e-01 7.550343e+00 0.000000e+00  1.212698e+00 6.103385e+00 0.000000e+00  6.779397e-01 6.384078e+00 0.000000e+00  -2.314308e-01 6.989545e+00 0.000000e+00  2.869412e-01 2.827077e+00 0.000000e+00  5.620471e-02 4.024334e+00 0.000000e+00  -1.344300e-02 6.779487e+00 0.000000e+00  -1.608707e-01 6.954953e+00 0.000000e+00  3.388661e-02 3.310337e+00 0.000000e+00  -5.233943e-03 3.917608e+00 0.000000e+00  -1.187857e-02 3.215683e+00 0.000000e+00  -2.165138e-01 7.372901e+00 0.000000e+00  3.489519e-02 2.058706e+00 0.000000e+00  -3.216057e-01 7.433443e+00 0.000000e+00  6.294163e-01 6.435762e+00 0.000000e+00  -3.286072e-01 7.142836e+00 0.000000e+00  7.062303e-02 4.621627e+00 0.000000e+00  -5.348453e-01 7.782616e+00 0.000000e+00  3.178450e-01 5.786085e+00 0.000000e+00  1.485972e+00 8.177371e+00 0.000000e+00  6.378335e-01 6.625940e+00 0.000000e+00  2.353126e-01 9.622780e+00 0.000000e+00  -3.312856e-01 1.036133e+01 0.000000e+00  5.196466e-01 6.604217e+00 0.000000e+00  7.827456e-02 1.052205e+01 0.000000e+00  -1.630465e-01 9.792745e+00 0.000000e+00  -6.654762e-01 1.135004e+01 0.000000e+00  4.717268e-01 1.030191e+01 0.000000e+00  -5.527636e-01 1.133372e+01 0.000000e+00  5.698467e-01 6.761731e+00 0.000000e+00  -9.099292e-01 1.157942e+01 0.000000e+00  -1.070144e+00 1.167523e+01 0.000000e+00  -7.706867e-01 1.154817e+01 0.000000e+00  -9.841789e-01 1.166721e+01 0.000000e+00  -5.019718e-01 1.103180e+01 0.000000e+00  -1.009454e+00 1.162791e+01 0.000000e+00  -1.065072e+00 1.169563e+01 0.000000e+00  1.417830e-01 5.019938e+00 0.000000e+00  1.007483e-01 4.965802e+00 0.000000e+00  7.839044e-02 4.874096e+00 0.000000e+00  9.034701e-02 4.932940e+00 0.000000e+00  -2.505809e-01 7.117711e+00 0.000000e+00  1.092769e-01 1.238083e+00 0.000000e+00  3.527080e-01 4.342970e+00 0.000000e+00  7.197268e-02 7.649845e+00 0.000000e+00  3.566686e-01 2.451510e+00 0.000000e+00  -4.368908e-03 1.930847e+00 0.000000e+00  3.385711e-01 2.676131e+00 0.000000e+00  7.288298e-01 6.496484e+00 0.000000e+00  1.622032e-01 5.866068e+00 0.000000e+00  4.960392e-01 5.691403e+00 0.000000e+00  8.476255e-01 4.942324e+00 0.000000e+00  -2.729331e-02 6.164224e-01 0.000000e+00  7.165027e-01 7.800953e+00 0.000000e+00  1.390433e-01 4.102928e+00 0.000000e+00  -1.334007e-01 7.271079e+00 0.000000e+00  -2.764353e-01 7.110229e+00 0.000000e+00  3.554802e-01 5.732421e+00 0.000000e+00  -5.743527e-02 6.881320e+00 0.000000e+00  2.821000e-01 5.097967e+00 0.000000e+00  6.327643e-01 6.314375e+00 0.000000e+00  6.867204e-01 6.398369e+00 0.000000e+00  4.886050e-01 6.020806e+00 0.000000e+00  1.043317e-01 1.773778e+00 0.000000e+00  -1.566573e-01 6.987113e+00 0.000000e+00  8.652888e-04 9.663490e-01 0.000000e+00  -1.293796e-01 6.980253e+00 0.000000e+00  2.072765e-01 4.799562e+00 0.000000e+00  5.148176e-02 1.003981e+00 0.000000e+00  9.623067e-03 1.202889e+00 0.000000e+00  -4.337531e-01 7.390412e+00 0.000000e+00  2.070844e-02 1.966784e+00 0.000000e+00  6.745442e-01 6.555802e+00 0.000000e+00  8.325372e-01 4.277249e+00 0.000000e+00  5.906985e-01 6.260926e+00 0.000000e+00  5.822792e-01 6.320766e+00 0.000000e+00  4.719010e-01 6.517296e+00 0.000000e+00  7.442867e-02 6.786401e+00 0.000000e+00  -2.690506e-03 5.629759e-01 0.000000e+00  2.060089e-01 5.026359e+00 0.000000e+00  4.316760e-01 6.595476e+00 0.000000e+00  8.356733e-02 3.397086e+00 0.000000e+00  -2.373013e-03 2.826292e+00 0.000000e+00  -2.143356e-02 1.459542e+00 0.000000e+00  2.059024e-01 6.656620e+00 0.000000e+00  -2.946567e-01 7.267310e+00 0.000000e+00  1.061678e-01 1.225467e+00 0.000000e+00  1.315784e+00 7.348050e+00 0.000000e+00  -4.535574e-02 4.911310e-01 0.000000e+00  2.760575e-01 5.406157e+00 0.000000e+00  6.403793e-02 3.807542e+00 0.000000e+00  -3.325540e-01 7.256840e+00 0.000000e+00  -3.583556e-01 7.189218e+00 0.000000e+00  3.019591e-02 2.289115e+00 0.000000e+00  6.524510e-01 6.472653e+00 0.000000e+00  5.607168e-01 3.557857e+00 0.000000e+00  6.903785e-01 6.417322e+00 0.000000e+00  2.455415e-01 2.381741e+00 0.000000e+00  3.987565e-02 2.989875e+00 0.000000e+00  -2.550469e-01 7.038862e+00 0.000000e+00  1.976131e-01 2.591535e+00 0.000000e+00  -3.010876e-01 7.541232e+00 0.000000e+00  -4.579018e-01 7.618005e+00 0.000000e+00  9.982426e-01 4.953494e+00 0.000000e+00  -1.630245e-01 6.888873e+00 0.000000e+00  1.083707e-01 4.384094e+00 0.000000e+00  -3.659940e-01 7.477956e+00 0.000000e+00  -2.742145e-01 7.421144e+00 0.000000e+00  -3.219200e-01 7.371587e+00 0.000000e+00  1.087655e+00 9.137265e+00 0.000000e+00  -2.924807e-01 7.064026e+00 0.000000e+00  8.165600e-02 6.688006e+00 0.000000e+00  2.775365e-02 4.261381e+00 0.000000e+00  3.432316e-02 4.110351e+00 0.000000e+00  -2.333815e-02 3.579315e+00 0.000000e+00  6.933564e-04 2.871719e+00 0.000000e+00  5.850145e-01 6.484084e+00 0.000000e+00  3.824849e-01 6.115671e+00 0.000000e+00  -5.239840e-01 7.967797e+00 0.000000e+00  1.487149e-02 4.427760e+00 0.000000e+00  -3.567437e-01 7.173563e+00 0.000000e+00  9.906300e-02 4.810720e+00 0.000000e+00  1.497394e+00 8.764048e+00 0.000000e+00  -5.849876e-01 7.686229e+00 0.000000e+00  1.400078e+00 7.554650e+00 0.000000e+00  6.434319e-01 6.590146e+00 0.000000e+00  2.244686e-01 1.008299e+01 0.000000e+00  -1.860093e-01 9.427879e+00 0.000000e+00  5.273432e-01 6.711390e+00 0.000000e+00  -3.582938e-01 1.070693e+01 0.000000e+00  6.295251e-01 6.696300e+00 0.000000e+00  -2.309683e-01 1.100395e+01 0.000000e+00  -3.455102e-01 1.005991e+01 0.000000e+00  -4.836780e-01 1.136983e+01 0.000000e+00  -1.034214e+00 1.168826e+01 0.000000e+00  -5.476558e-01 1.113213e+01 0.000000e+00  -1.074539e+00 1.169101e+01 0.000000e+00  5.683941e-01 6.794540e+00 0.000000e+00  1.331809e-01 5.039366e+00 0.000000e+00  7.193529e-02 4.834730e+00 0.000000e+00  1.364609e-01 7.018704e+00 0.000000e+00  2.885196e-01 3.023821e+00 0.000000e+00  9.082517e-01 6.395925e+00 0.000000e+00  7.405304e-01 6.450825e+00 0.000000e+00  1.160496e-02 1.376348e+00 0.000000e+00  7.365328e-01 5.647869e+00 0.000000e+00  -2.347849e-01 7.072548e+00 0.000000e+00  -4.709260e-02 6.971683e+00 0.000000e+00  5.649584e-01 3.452471e+00 0.000000e+00  1.282183e-01 1.122484e+00 0.000000e+00  3.015433e-01 5.371305e+00 0.000000e+00  1.213055e-02 2.214723e+00 0.000000e+00  1.840290e-01 4.384761e+00 0.000000e+00  -1.389134e-02 8.152814e-01 0.000000e+00  7.169836e-01 6.466882e+00 0.000000e+00  2.082611e-01 6.741706e+00 0.000000e+00  4.633226e-03 6.146536e-01 0.000000e+00  -7.428908e-03 3.478649e-01 0.000000e+00  -2.930425e-01 7.218895e+00 0.000000e+00  7.600605e-01 6.487158e+00 0.000000e+00  2.102090e-01 1.783700e+00 0.000000e+00  5.721151e-01 3.306206e+00 0.000000e+00  9.479175e-02 6.571230e-01 0.000000e+00  4.700291e-01 2.841828e+00 0.000000e+00  9.501614e-01 4.907545e+00 0.000000e+00  2.923339e-01 5.424915e+00 0.000000e+00  -7.685165e-02 6.915472e+00 0.000000e+00  2.539677e-01 8.040336e+00 0.000000e+00  -7.106692e-03 1.485027e+00 0.000000e+00  -1.515881e-03 1.880291e+00 0.000000e+00  6.705737e-01 6.494300e+00 0.000000e+00  2.381304e-01 6.610636e+00 0.000000e+00  5.453184e-01 6.525785e+00 0.000000e+00  -2.352861e-01 7.042548e+00 0.000000e+00  1.131927e-01 4.116943e+00 0.000000e+00  5.608438e-01 6.250704e+00 0.000000e+00  1.864251e-01 4.869145e+00 0.000000e+00  8.417664e-01 8.547260e+00 0.000000e+00  6.066440e-01 6.481002e+00 0.000000e+00  7.622562e-02 1.699102e+00 0.000000e+00  6.800507e-04 2.628691e+00 0.000000e+00  -1.013356e-02 1.854972e+00 0.000000e+00  -3.451496e-01 7.623021e+00 0.000000e+00  5.823515e-02 1.310805e+00 0.000000e+00  8.362140e-02 6.747599e+00 0.000000e+00  4.137838e-01 5.855659e+00 0.000000e+00  -3.209667e-01 7.188251e+00 0.000000e+00  -1.466110e-01 7.715941e+00 0.000000e+00  -3.755876e-01 7.333307e+00 0.000000e+00  1.337675e+00 6.984012e+00 0.000000e+00  -3.244938e-01 7.166444e+00 0.000000e+00  7.386265e-01 4.006105e+00 0.000000e+00  1.195088e+00 7.120820e+00 0.000000e+00  -2.045590e-01 7.452477e+00 0.000000e+00  2.580570e-02 3.571127e+00 0.000000e+00  6.873128e-03 3.095834e+00 0.000000e+00  1.339644e+00 8.506166e+00 0.000000e+00  2.513114e-01 5.229698e+00 0.000000e+00  4.199857e-01 5.962210e+00 0.000000e+00  -2.923818e-02 1.148486e+00 0.000000e+00  -1.855523e-01 6.959270e+00 0.000000e+00  3.754230e-01 3.061898e+00 0.000000e+00  1.058851e-01 2.348264e+00 0.000000e+00  5.272154e-01 6.336254e+00 0.000000e+00  -1.372721e-01 6.892033e+00 0.000000e+00  1.693863e-01 2.448148e+00 0.000000e+00  3.860194e-01 3.004341e+00 0.000000e+00  -3.189386e-01 7.118595e+00 0.000000e+00  -4.227141e-01 7.280571e+00 0.000000e+00  1.437052e-01 4.822638e+00 0.000000e+00  -4.404059e-01 7.517591e+00 0.000000e+00  -2.651854e-01 7.007702e+00 0.000000e+00  6.297930e-01 6.353512e+00 0.000000e+00  8.713227e-03 2.530418e+00 0.000000e+00  1.363762e-02 3.761151e+00 0.000000e+00  -4.069343e-01 7.414263e+00 0.000000e+00  6.439474e-01 6.484505e+00 0.000000e+00  -8.692995e-03 3.509809e+00 0.000000e+00  -3.361305e-01 7.516007e+00 0.000000e+00  4.088855e-01 6.513295e+00 0.000000e+00  -5.783608e-02 6.784459e+00 0.000000e+00  -2.831827e-02 3.962473e+00 0.000000e+00  -4.759612e-03 2.930032e+00 0.000000e+00  -5.424975e-01 7.617244e+00 0.000000e+00  2.227416e-01 5.170781e+00 0.000000e+00  6.399234e-01 6.403043e+00 0.000000e+00  2.899377e-01 5.610768e+00 0.000000e+00  3.168973e-01 2.865960e+00 0.000000e+00  8.537314e-01 4.392365e+00 0.000000e+00  1.189157e+00 9.782995e+00 0.000000e+00  -4.365739e-01 7.921593e+00 0.000000e+00  -1.