<?xml version="1.0"?>
<VTKFile type="UnstructuredGrid"  version="0.1"  >
<UnstructuredGrid>
<Piece  NumberOfPoints="16641" NumberOfCells="32768">
<Points>
<DataArray  type="Float32"  NumberOfComponents="3"  format="ascii">0 0 0  0.0078125 0 0  0.015625 0 0  0.0234375 0 0  0.03125 0 0  0.0390625 0 0  0.046875 0 0  0.0546875 0 0  0.0625 0 0  0.0703125 0 0  0.078125 0 0  0.0859375 0 0  0.09375 0 0  0.101562 0 0  0.109375 0 0  0.117188 0 0  0.125 0 0  0.132812 0 0  0.140625 0 0  0.148438 0 0  0.15625 0 0  0.164062 0 0  0.171875 0 0  0.179688 0 0  0.1875 0 0  0.195312 0 0  0.203125 0 0  0.210938 0 0  0.21875 0 0  0.226562 0 0  0.234375 0 0  0.242188 0 0  0.25 0 0  0.257812 0 0  0.265625 0 0  0.273438 0 0  0.28125 0 0  0.289062 0 0  0.296875 0 0  0.304688 0 0  0.3125 0 0  0.320312 0 0  0.328125 0 0  0.335938 0 0  0.34375 0 0  0.351562 0 0  0.359375 0 0  0.367188 0 0  0.375 0 0  0.382812 0 0  0.390625 0 0  0.398438 0 0  0.40625 0 0  0.414062 0 0  0.421875 0 0  0.429688 0 0  0.4375 0 0  0.445312 0 0  0.453125 0 0  0.460938 0 0  0.46875 0 0  0.476562 0 0  0.484375 0 0  0.492188 0 0  0.5 0 0  0.507812 0 0  0.515625 0 0  0.523438 0 0  0.53125 0 0  0.539062 0 0  0.546875 0 0  0.554688 0 0  0.5625 0 0  0.570312 0 0  0.578125 0 0  0.585938 0 0  0.59375 0 0  0.601562 0 0  0.609375 0 0  0.617188 0 0  0.625 0 0  0.632812 0 0  0.640625 0 0  0.648438 0 0  0.65625 0 0  0.664062 0 0  0.671875 0 0  0.679688 0 0  0.6875 0 0  0.695312 0 0  0.703125 0 0  0.710938 0 0  0.71875 0 0  0.726562 0 0  0.734375 0 0  0.742188 0 0  0.75 0 0  0.757812 0 0  0.765625 0 0  0.773438 0 0  0.78125 0 0  0.789062 0 0  0.796875 0 0  0.804688 0 0  0.8125 0 0  0.820312 0 0  0.828125 0 0  0.835938 0 0  0.84375 0 0  0.851562 0 0  0.859375 0 0  0.867188 0 0  0.875 0 0  0.882812 0 0  0.890625 0 0  0.898438 0 0  0.90625 0 0  0.914062 0 0  0.921875 0 0  0.929688 0 0  0.9375 0 0  0.945312 0 0  0.953125 0 0  0.960938 0 0  0.96875 0 0  0.976562 0 0  0.984375 0 0  0.992188 0 0  1 0 0  0 0.0078125 0  0.0078125 0.0078125 0  0.015625 0.0078125 0  0.0234375 0.0078125 0  0.03125 0.0078125 0  0.0390625 0.0078125 0  0.046875 0.0078125 0  0.0546875 0.0078125 0  0.0625 0.0078125 0  0.0703125 0.0078125 0  0.078125 0.0078125 0  0.0859375 0.0078125 0  0.09375 0.0078125 0  0.101562 0.0078125 0  0.109375 0.0078125 0  0.117188 0.0078125 0  0.125 0.0078125 0  0.132812 0.0078125 0  0.140625 0.0078125 0  0.148438 0.0078125 0  0.15625 0.0078125 0  0.164062 0.0078125 0  0.171875 0.0078125 0  0.179688 0.0078125 0  0.1875 0.0078125 0  0.195312 0.0078125 0  0.203125 0.0078125 0  0.210938 0.0078125 0  0.21875 0.0078125 0  0.226562 0.0078125 0  0.234375 0.0078125 0  0.242188 0.0078125 0  0.25 0.0078125 0  0.257812 0.0078125 0  0.265625 0.0078125 0  0.273438 0.0078125 0  0.28125 0.0078125 0  0.289062 0.0078125 0  0.296875 0.0078125 0  0.304688 0.0078125 0  0.3125 0.0078125 0  0.320312 0.0078125 0  0.328125 0.0078125 0  0.335938 0.0078125 0  0.34375 0.0078125 0  0.351562 0.0078125 0  0.359375 0.0078125 0  0.367188 0.0078125 0  0.375 0.0078125 0  0.382812 0.0078125 0  0.390625 0.0078125 0  0.398438 0.0078125 0  0.40625 0.0078125 0  0.414062 0.0078125 0  0.421875 0.0078125 0  0.429688 0.0078125 0  0.4375 0.0078125 0  0.445312 0.0078125 0  0.453125 0.0078125 0  0.460938 0.0078125 0  0.46875 0.0078125 0  0.476562 0.0078125 0  0.484375 0.0078125 0  0.492188 0.0078125 0  0.5 0.0078125 0  0.507812 0.0078125 0  0.515625 0.0078125 0  0.523438 0.0078125 0  0.53125 0.0078125 0  0.539062 0.0078125 0  0.546875 0.0078125 0  0.554688 0.0078125 0  0.5625 0.0078125 0  0.570312 0.0078125 0  0.578125 0.0078125 0  0.585938 0.0078125 0  0.59375 0.0078125 0  0.601562 0.0078125 0  0.609375 0.0078125 0  0.617188 0.0078125 0  0.625 0.0078125 0  0.632812 0.0078125 0  0.640625 0.0078125 0  0.648438 0.0078125 0  0.65625 0.0078125 0  0.664062 0.0078125 0  0.671875 0.0078125 0  0.679688 0.0078125 0  0.6875 0.0078125 0  0.695312 0.0078125 0  0.703125 0.0078125 0  0.710938 0.0078125 0  0.71875 0.0078125 0  0.726562 0.0078125 0  0.734375 0.0078125 0  0.742188 0.0078125 0  0.75 0.0078125 0  0.757812 0.0078125 0  0.765625 0.0078125 0  0.773438 0.0078125 0  0.78125 0.0078125 0  0.789062 0.0078125 0  0.796875 0.0078125 0  0.804688 0.0078125 0  0.8125 0.0078125 0  0.820312 0.0078125 0  0.828125 0.0078125 0  0.835938 0.0078125 0  0.84375 0.0078125 0  0.851562 0.0078125 0  0.859375 0.0078125 0  0.867188 0.0078125 0  0.875 0.0078125 0  0.882812 0.0078125 0  0.890625 0.0078125 0  0.898438 0.0078125 0  0.90625 0.0078125 0  0.914062 0.0078125 0  0.921875 0.0078125 0  0.929688 0.0078125 0  0.9375 0.0078125 0  0.945312 0.0078125 0  0.953125 0.0078125 0  0.960938 0.0078125 0  0.96875 0.0078125 0  0.976562 0.0078125 0  0.984375 0.0078125 0  0.992188 0.0078125 0  1 0.0078125 0  0 0.015625 0  0.0078125 0.015625 0  0.015625 0.015625 0  0.0234375 0.015625 0  0.03125 0.015625 0  0.0390625 0.015625 0  0.046875 0.015625 0  0.0546875 0.015625 0  0.0625 0.015625 0  0.0703125 0.015625 0  0.078125 0.015625 0  0.0859375 0.015625 0  0.09375 0.015625 0  0.101562 0.015625 0  0.109375 0.015625 0  0.117188 0.015625 0  0.125 0.015625 0  0.132812 0.015625 0  0.140625 0.015625 0  0.148438 0.015625 0  0.15625 0.015625 0  0.164062 0.015625 0  0.171875 0.015625 0  0.179688 0.015625 0  0.1875 0.015625 0  0.195312 0.015625 0  0.203125 0.015625 0  0.210938 0.015625 0  0.21875 0.015625 0  0.226562 0.015625 0  0.234375 0.015625 0  0.242188 0.015625 0  0.25 0.015625 0  0.257812 0.015625 0  0.265625 0.015625 0  0.273438 0.015625 0  0.28125 0.015625 0  0.289062 0.015625 0  0.296875 0.015625 0  0.304688 0.015625 0  0.3125 0.015625 0  0.320312 0.015625 0  0.328125 0.015625 0  0.335938 0.015625 0  0.34375 0.015625 0  0.351562 0.015625 0  0.359375 0.015625 0  0.367188 0.015625 0  0.375 0.015625 0  0.382812 0.015625 0  0.390625 0.015625 0  0.398438 0.015625 0  0.40625 0.015625 0  0.414062 0.015625 0  0.421875 0.015625 0  0.429688 0.015625 0  0.4375 0.015625 0  0.445312 0.015625 0  0.453125 0.015625 0  0.460938 0.015625 0  0.46875 0.015625 0  0.476562 0.015625 0  0.484375 0.015625 0  0.492188 0.015625 0  0.5 0.015625 0  0.507812 0.015625 0  0.515625 0.015625 0  0.523438 0.015625 0  0.53125 0.015625 0  0.539062 0.015625 0  0.546875 0.015625 0  0.554688 0.015625 0  0.5625 0.015625 0  0.570312 0.015625 0  0.578125 0.015625 0  0.585938 0.015625 0  0.59375 0.015625 0  0.601562 0.015625 0  0.609375 0.015625 0  0.617188 0.015625 0  0.625 0.015625 0  0.632812 0.015625 0  0.640625 0.015625 0  0.648438 0.015625 0  0.65625 0.015625 0  0.664062 0.015625 0  0.671875 0.015625 0  0.679688 0.015625 0  0.6875 0.015625 0  0.695312 0.015625 0  0.703125 0.015625 0  0.710938 0.015625 0  0.71875 0.015625 0  0.726562 0.015625 0  0.734375 0.015625 0  0.742188 0.015625 0  0.75 0.015625 0  0.757812 0.015625 0  0.765625 0.015625 0  0.773438 0.015625 0  0.78125 0.015625 0  0.789062 0.015625 0  0.796875 0.015625 0  0.804688 0.015625 0  0.8125 0.015625 0  0.820312 0.015625 0  0.828125 0.015625 0  0.835938 0.015625 0  0.84375 0.015625 0  0.851562 0.015625 0  0.859375 0.015625 0  0.867188 0.015625 0  0.875 0.015625 0  0.882812 0.015625 0  0.890625 0.015625 0  0.898438 0.015625 0  0.90625 0.015625 0  0.914062 0.015625 0  0.921875 0.015625 0  0.929688 0.015625 0  0.9375 0.015625 0  0.945312 0.015625 0  0.953125 0.015625 0  0.960938 0.015625 0  0.96875 0.015625 0  0.976562 0.015625 0  0.984375 0.015625 0  0.992188 0.015625 0  1 0.015625 0  0 0.0234375 0  0.0078125 0.0234375 0  0.015625 0.0234375 0  0.0234375 0.0234375 0  0.03125 0.0234375 0  0.0390625 0.0234375 0  0.046875 0.0234375 0  0.0546875 0.0234375 0  0.0625 0.0234375 0  0.0703125 0.0234375 0  0.078125 0.0234375 0  0.0859375 0.0234375 0  0.09375 0.0234375 0  0.101562 0.0234375 0  0.109375 0.0234375 0  0.117188 0.0234375 0  0.125 0.0234375 0  0.132812 0.0234375 0  0.140625 0.0234375 0  0.148438 0.0234375 0  0.15625 0.0234375 0  0.164062 0.0234375 0  0.171875 0.0234375 0  0.179688 0.0234375 0  0.1875 0.0234375 0  0.195312 0.0234375 0  0.203125 0.0234375 0  0.210938 0.0234375 0  0.21875 0.0234375 0  0.226562 0.0234375 0  0.234375 0.0234375 0  0.242188 0.0234375 0  0.25 0.0234375 0  0.257812 0.0234375 0  0.265625 0.0234375 0  0.273438 0.0234375 0  0.28125 0.0234375 0  0.289062 0.0234375 0  0.296875 0.0234375 0  0.304688 0.0234375 0  0.3125 0.0234375 0  0.320312 0.0234375 0  0.328125 0.0234375 0  0.335938 0.0234375 0  0.34375 0.0234375 0  0.351562 0.0234375 0  0.359375 0.0234375 0  0.367188 0.0234375 0  0.375 0.0234375 0  0.382812 0.0234375 0  0.390625 0.0234375 0  0.398438 0.0234375 0  0.40625 0.0234375 0  0.414062 0.0234375 0  0.421875 0.0234375 0  0.429688 0.0234375 0  0.4375 0.0234375 0  0.445312 0.0234375 0  0.453125 0.0234375 0  0.460938 0.0234375 0  0.46875 0.0234375 0  0.476562 0.0234375 0  0.484375 0.0234375 0  0.492188 0.0234375 0  0.5 0.0234375 0  0.507812 0.0234375 0  0.515625 0.0234375 0  0.523438 0.0234375 0  0.53125 0.0234375 0  0.539062 0.0234375 0  0.546875 0.0234375 0  0.554688 0.0234375 0  0.5625 0.0234375 0  0.570312 0.0234375 0  0.578125 0.0234375 0  0.585938 0.0234375 0  0.59375 0.0234375 0  0.601562 0.0234375 0  0.609375 0.0234375 0  0.617188 0.0234375 0  0.625 0.0234375 0  0.632812 0.0234375 0  0.640625 0.0234375 0  0.648438 0.0234375 0  0.65625 0.0234375 0  0.664062 0.0234375 0  0.671875 0.0234375 0  0.679688 0.0234375 0  0.6875 0.0234375 0  0.695312 0.0234375 0  0.703125 0.0234375 0  0.710938 0.0234375 0  0.71875 0.0234375 0  0.726562 0.0234375 0  0.734375 0.0234375 0  0.742188 0.0234375 0  0.75 0.0234375 0  0.757812 0.0234375 0  0.765625 0.0234375 0  0.773438 0.0234375 0  0.78125 0.0234375 0  0.789062 0.0234375 0  0.796875 0.0234375 0  0.804688 0.0234375 0  0.8125 0.0234375 0  0.820312 0.0234375 0  0.828125 0.0234375 0  0.835938 0.0234375 0  0.84375 0.0234375 0  0.851562 0.0234375 0  0.859375 0.0234375 0  0.867188 0.0234375 0  0.875 0.0234375 0  0.882812 0.0234375 0  0.890625 0.0234375 0  0.898438 0.0234375 0  0.90625 0.0234375 0  0.914062 0.0234375 0  0.921875 0.0234375 0  0.929688 0.0234375 0  0.9375 0.0234375 0  0.945312 0.0234
[...]
<PointData  Vectors="u"> 
<DataArray  type="Float32"  Name="u"  NumberOfComponents="3" format="ascii">0.000000e+00 0.000000e+00 0.000000e+00  0.000000e+00 0.000000e+00 0.000000e+00  0.000000e+00 0.000000e+00 0.000000e+00  0.000000e+00 0.000000e+00 0.000000e+00  0.000000e+00 0.000000e+00 0.000000e+00  0.000000e+00 0.000000e+00 0.000000e+00  0.000000e+00 0.000000e+00 0.000000e+00  0.000000e+00 0.000000e+00 0.000000e+00  0.000000e+00 0.000000e+00 0.000000e+00  0.000000e+00 0.000000e+00 0.000000e+00  0.000000e+00 0.000000e+00 0.000000e+00  0.000000e+00 0.000000e+00 0.000000e+00  0.000000e+00 0.000000e+00 0.000000e+00  0.000000e+00 0.000000e+00 0.000000e+00  0.000000e+00 0.000000e+00 0.000000e+00  0.000000e+00 0.000000e+00 0.000000e+00  0.000000e+00 0.000000e+00 0.000000e+00  0.000000e+00 0.000000e+00 0.000000e+00  0.000000e+00 0.000000e+00 0.000000e+00  0.000000e+00 0.000000e+00 0.000000e+00  0.000000e+00 0.000000e+00 0.000000e+00  0.000000e+00 0.000000e+00 0.000000e+00  0.000000e+00 0.000000e+00 0.000000e+00  0.000000e+00 0.000000e+00 0.000000e+00  0.000000e+00 0.000000e+00 0.000000e+00  0.000000e+00 0.000000e+00 0.000000e+00  0.000000e+00 0.000000e+00 0.000000e+00  0.000000e+00 0.000000e+00 0.000000e+00  0.000000e+00 0.000000e+00 0.000000e+00  0.000000e+00 0.000000e+00 0.000000e+00  0.000000e+00 0.000000e+00 0.000000e+00  0.000000e+00 0.000000e+00 0.000000e+00  0.000000e+00 0.000000e+00 0.000000e+00  0.000000e+00 0.000000e+00 0.000000e+00  0.000000e+00 0.000000e+00 0.000000e+00  0.000000e+00 0.000000e+00 0.000000e+00  0.000000e+00 0.000000e+00 0.000000e+00  0.000000e+00 0.000000e+00 0.000000e+00  0.000000e+00 0.000000e+00 0.000000e+00  0.000000e+00 0.000000e+00 0.000000e+00  0.000000e+00 0.000000e+00 0.000000e+00  0.000000e+00 0.000000e+00 0.000000e+00  0.000000e+00 0.000000e+00 0.000000e+00  0.000000e+00 0.000000e+00 0.000000e+00  0.000000e+00 0.000000e+00 0.000000e+00  0.000000e+00 0.000000e+00 0.000000e+00  0.000000e+00 0.000000e+00 0.000000e+00  0.000000e+00 0.000000e+00 0.000000e+00  0.000000e+00 0.000000e+00 0.000000e+00  0.000000e+00 0.000000e+00 0.000000e+00  0.000000e+00 0.000000e+00 0.000000e+00  0.000000e+00 0.000000e+00 0.000000e+00  0.000000e+00 0.000000e+00 0.000000e+00  0.000000e+00 0.000000e+00 0.000000e+00  0.000000e+00 0.000000e+00 0.000000e+00  0.000000e+00 0.000000e+00 0.000000e+00  0.000000e+00 0.000000e+00 0.000000e+00  0.000000e+00 0.000000e+00 0.000000e+00  0.000000e+00 0.000000e+00 0.000000e+00  0.000000e+00 0.000000e+00 0.000000e+00  0.000000e+00 0.000000e+00 0.000000e+00  0.000000e+00 0.000000e+00 0.000000e+00  0.000000e+00 0.000000e+00 0.000000e+00  0.000000e+00 0.000000e+00 0.000000e+00  0.000000e+00 0.000000e+00 0.000000e+00  0.000000e+00 0.000000e+00 0.000000e+00  0.000000e+00 0.000000e+00 0.000000e+00  0.000000e+00 0.000000e+00 0.000000e+00  0.000000e+00 0.000000e+00 0.000000e+00  0.000000e+00 0.000000e+00 0.000000e+00  0.000000e+00 0.000000e+00 0.000000e+00  0.000000e+00 0.000000e+00 0.000000e+00  0.000000e+00 0.000000e+00 0.000000e+00  0.000000e+00 0.000000e+00 0.000000e+00  0.000000e+00 0.000000e+00 0.000000e+00  0.000000e+00 0.000000e+00 0.000000e+00  0.000000e+00 0.000000e+00 0.000000e+00  0.000000e+00 0.000000e+00 0.000000e+00  0.000000e+00 0.000000e+00 0.000000e+00  0.000000e+00 0.000000e+00 0.000000e+00  0.000000e+00 0.000000e+00 0.000000e+00  0.000000e+00 0.000000e+00 0.000000e+00  0.000000e+00 0.000000e+00 0.000000e+00  0.000000e+00 0.000000e+00 0.000000e+00  0.000000e+00 0.000000e+00 0.000000e+00  0.000000e+00 0.000000e+00 0.000000e+00  0.000000e+00 0.000000e+00 0.000000e+00  0.000000e+00 0.000000e+00 0.000000e+00  0.000000e+00 0.000000e+00 0.000000e+00  0.000000e+00 0.000000e+00 0.000000e+00  0.000000e+00 0.000000e+00 0.000000e+00  0.000000e+00 0.000000e+00 0.000000e+00  0.000000e+00 0.000000e+00 0.000000e+00  0.000000e+00 0.000000e+00 0.000000e+00  0.000000e+00 0.000000e+00 0.000000e+00  0.000000e+00 0.000000e+00 0.000000e+00  0.000000e+00 0.000000e+00 0.000000e+00  0.000000e+00 0.000000e+00 0.000000e+00  0.000000e+00 0.000000e+00 0.000000e+00  0.000000e+00 0.000000e+00 0.000000e+00  0.000000e+00 0.000000e+00 0.000000e+00  0.000000e+00 0.000000e+00 0.000000e+00  0.000000e+00 0.000000e+00 0.000000e+00  0.000000e+00 0.000000e+00 0.000000e+00  0.000000e+00 0.000000e+00 0.000000e+00  0.000000e+00 0.000000e+00 0.000000e+00  0.000000e+00 0.000000e+00 0.000000e+00  0.000000e+00 0.000000e+00 0.000000e+00  0.000000e+00 0.000000e+00 0.000000e+00  0.000000e+00 0.000000e+00 0.000000e+00  0.000000e+00 0.000000e+00 0.000000e+00  0.000000e+00 0.000000e+00 0.000000e+00  0.000000e+00 0.000000e+00 0.000000e+00  0.000000e+00 0.000000e+00 0.000000e+00  0.000000e+00 0.000000e+00 0.000000e+00  0.000000e+00 0.000000e+00 0.000000e+00  0.000000e+00 0.000000e+00 0.000000e+00  0.000000e+00 0.000000e+00 0.000000e+00  0.000000e+00 0.000000e+00 0.000000e+00  0.000000e+00 0.000000e+00 0.000000e+00  0.000000e+00 0.000000e+00 0.000000e+00  0.000000e+00 0.000000e+00 0.000000e+00  0.000000e+00 0.000000e+00 0.000000e+00  0.000000e+00 0.000000e+00 0.000000e+00  0.000000e+00 0.000000e+00 0.000000e+00  0.000000e+00 0.000000e+00 0.000000e+00  0.000000e+00 0.000000e+00 0.000000e+00  0.000000e+00 0.000000e+00 0.000000e+00  0.000000e+00 0.000000e+00 0.000000e+00  0.000000e+00 0.000000e+00 0.000000e+00  6.048396e-06 -6.046358e-06 0.000000e+00  2.085221e-05 -9.932608e-06 0.000000e+00  3.898597e-05 -1.029140e-05 0.000000e+00  5.514779e-05 -8.250458e-06 0.000000e+00  6.581541e-05 -4.672420e-06 0.000000e+00  6.866088e-05 -1.572058e-07 0.000000e+00  6.227008e-05 4.891234e-06 0.000000e+00  4.585548e-05 1.020177e-05 0.000000e+00  1.906352e-05 1.558906e-05 0.000000e+00  -1.815586e-05 2.092529e-05 0.000000e+00  -6.564019e-05 2.612209e-05 0.000000e+00  -1.230784e-04 3.111874e-05 0.000000e+00  -1.900568e-04 3.587431e-05 0.000000e+00  -2.660924e-04 4.036220e-05 0.000000e+00  -3.506574e-04 4.456643e-05 0.000000e+00  -4.431977e-04 4.847881e-05 0.000000e+00  -5.431466e-04 5.209698e-05 0.000000e+00  -6.499347e-04 5.542286e-05 0.000000e+00  -7.629976e-04 5.846149e-05 0.000000e+00  -8.817817e-04 6.122016e-05 0.000000e+00  -1.005748e-03 6.370769e-05 0.000000e+00  -1.134373e-03 6.593387e-05 0.000000e+00  -1.267154e-03 6.790905e-05 0.000000e+00  -1.403608e-03 6.964374e-05 0.000000e+00  -1.543270e-03 7.114839e-05 0.000000e+00  -1.685695e-03 7.243313e-05 0.000000e+00  -1.830459e-03 7.350762e-05 0.000000e+00  -1.977154e-03 7.438093e-05 0.000000e+00  -2.125389e-03 7.506142e-05 0.000000e+00  -2.274789e-03 7.555670e-05 0.000000e+00  -2.424992e-03 7.587357e-05 0.000000e+00  -2.575650e-03 7.601803e-05 0.000000e+00  -2.726425e-03 7.599526e-05 0.000000e+00  -2.876987e-03 7.580963e-05 0.000000e+00  -3.027017e-03 7.546477e-05 0.000000e+00  -3.176200e-03 7.496355e-05 0.000000e+00  -3.324225e-03 7.430818e-05 0.000000e+00  -3.470789e-03 7.350027e-05 0.000000e+00  -3.615588e-03 7.254086e-05 0.000000e+00  -3.758320e-03 7.143054e-05 0.000000e+00  -3.898686e-03 7.016948e-05 0.000000e+00  -4.036386e-03 6.875754e-05 0.000000e+00  -4.171119e-03 6.719436e-05 0.000000e+00  -4.302585e-03 6.547942e-05 0.000000e+00  -4.430481e-03 6.361213e-05 0.000000e+00  -4.554504e-03 6.159194e-05 0.000000e+00  -4.674352e-03 5.941838e-05 0.000000e+00  -4.789719e-03 5.709119e-05 0.000000e+00  -4.900303e-03 5.461036e-05 0.000000e+00  -5.005798e-03 5.197623e-05 0.000000e+00  -5.105904e-03 4.918959e-05 0.000000e+00  -5.200319e-03 4.625167e-05 0.000000e+00  -5.288749e-03 4.316432e-05 0.000000e+00  -5.370899e-03 3.992997e-05 0.000000e+00  -5.446484e-03 3.655175e-05 0.000000e+00  -5.515224e-03 3.303352e-05 0.000000e+00  -5.576848e-03 2.937994e-05 0.000000e+00  -5.631096e-03 2.559648e-05 0.000000e+00  -5.677719e-03 2.168947e-05 0.000000e+00  -5.716482e-03 1.766613e-05 0.000000e+00  -5.747164e-03 1.353458e-05 0.000000e+00  -5.769563e-03 9.303874e-06 0.000000e+00  -5.783494e-03 4.983989e-06 0.000000e+00  -5.788796e-03 5.858248e-07 0.000000e+00  -5.785325e-03 -3.878807e-06 0.000000e+00  -5.772967e-03 -8.397199e-06 0.000000e+00  -5.751631e-03 -1.295578e-05 0.000000e+00  -5.721253e-03 -1.754014e-05 0.000000e+00  -5.681800e-03 -2.213511e-05 0.000000e+00  -5.633268e-03 -2.672476e-05 0.000000e+00  -5.575687e-03 -3.129252e-05 0.000000e+00  -5.509119e-03 -3.582123e-05 0.000000e+00  -5.433660e-03 -4.029319e-05 0.000000e+00  -5.349441e-03 -4.469030e-05 0.000000e+00  -5.256631e-03 -4.899413e-05 0.000000e+00  -5.155433e-03 -5.318601e-05 0.000000e+00  -5.046088e-03 -5.724717e-05 0.000000e+00  -4.928873e-03 -6.115883e-05 0.000000e+00  -4.804104e-03 -6.490233e-05 0.000000e+00  -4.672130e-03 -6.845925e-05 0.000000e+00  -4.533339e-03 -7.181154e-05 0.000000e+00  -4.388151e-03 -7.494164e-05 0.000000e+00  -4.237023e-03 -7.783263e-05 0.000000e+00  -4.080441e-03 -8.046833e-05 0.000000e+00  -3.918924e-03 -8.283344e-05 0.000000e+00  -3.753021e-03 -8.491368e-05 0.000000e+00  -3.583304e-03 -8.669588e-05 0.000000e+00  -3.410374e-03 -8.816812e-05 0.000000e+00  -3.234850e-03 -8.931981e-05 0.000000e+00  -3.057374e-03 -9.014183e-05 0.000000e+00  -2.878602e-03 -9.062658e-05 0.000000e+00  -2.699204e-03 -9.076811e-05 0.000000e+00  -2.519859e-03 -9.056213e-05 0.000000e+00  -2.341254e-03 -9.000614e-05 0.000000e+00  -2.164078e-03 -8.909943e-05 0.000000e+00  -1.989021e-03 -8.784314e-05 0.000000e+00  -1.816767e-03 -8.624030e-05 0.000000e+00  -1.647993e-03 -8.429582e-05 0.000000e+00  -1.483364e-03 -8.201654e-05 0.000000e+00  -1.323531e-03 -7.941118e-05 0.000000e+00  -1.169123e-03 -7.649041e-05 0.000000e+00  -1.020748e-03 -7.326675e-05 0.000000e+00  -8.789885e-04 -6.975466e-05 0.000000e+00  -7.443936e-04 -6.597047e-05 0.000000e+00  -6.174802e-04 -6.193242e-05 0.000000e+00  -4.987266e-04 -5.766065e-05 0.000000e+00  -3.885692e-04 -5.317732e-05 0.000000e+00  -2.873985e-04 -4.850660e-05 0.000000e+00  -1.955549e-04 -4.367487e-05 0.000000e+00  -1.133240e-04 -3.871091e-05 0.000000e+00  -4.093171e-05 -3.364614e-05 0.000000e+00  2.146155e-05 -2.851509e-05 0.000000e+00  7.376753e-05 -2.335593e-05 0.000000e+00  1.159780e-04 -1.821129e-05 0.000000e+00  1.481748e-04 -1.312928e-05 0.000000e+00  1.705413e-04 -8.165059e-06 0.000000e+00  1.833788e-04 -3.382842e-06 0.000000e+00  1.871257e-04 1.141239e-06 0.000000e+00  1.823841e-04 5.315163e-06 0.000000e+00  1.699540e-04 9.025455e-06 0.000000e+00  1.508795e-04 1.212936e-05 0.000000e+00  1.265097e-04 1.444395e-05 0.000000e+00  9.857945e-05 1.573167e-05 0.000000e+00  6.930972e-05 1.568432e-05 0.000000e+00  4.150419e-05 1.391725e-05 0.000000e+00  1.862665e-05 1.006164e-05 0.000000e+00  4.212883e-06 4.214572e-06 0.000000e+00  0.000000e+00 0.000000e+00 0.000000e+00  0.000000e+00 0.000000e+00 0.000000e+00  9.954658e-06 -2.086351e-05 0.000000e+00  3.125546e-05 -3.121173e-05 0.000000e+00  5.466337e-05 -3.111656e-05 0.000000e+00  7.305066e-05 -2.318005e-05 0.000000e+00  8.110972e-05 -9.896993e-06 0.000000e+00  7.505302e-05 6.823380e-06 0.000000e+00  5.239047e-05 2.561056e-05 0.000000e+00  1.161108e-05 4.549157e-05 0.000000e+00  -4.805869e-05 6.577540e-05 0.000000e+00  -1.268479e-04 8.597064e-05 0.000000e+00  -2.245863e-04 1.057282e-04 0.000000e+00  -3.408129e-04 1.248019e-04 0.000000e+00  -4.748577e-04 1.430209e-04 0.000000e+00  -6.259036e-04 1.602703e-04 0.000000e+00  -7.930329e-04 1.764768e-04 0.000000e+00  -9.752632e-04 1.915986e-04 0.000000e+00  -1.171574e-03 2.056173e-04 0.000000e+00  -1.380929e-03 2.185325e-04 0.000000e+00  -1.602290e-03 2.303564e-04 0.000000e+00  -1.834629e-03 2.411113e-04 0.000000e+00  -2.076938e-03 2.508259e-04 0.000000e+00  -2.328233e-03 2.595335e-04 0.000000e+00  -2.587562e-03 2.672701e-04 0.000000e+00  -2.854003e-03 2.740733e-04 0.000000e+00  -3.126666e-03 2.799804e-04 0.000000e+00  -3.404698e-03 2.850283e-04 0.000000e+00  -3.687276e-03 2.892524e-04 0.000000e+00  -3.973609e-03 2.926861e-04 0.000000e+00  -4.262936e-03 2.953605e-04 0.000000e+00  -4.554524e-03 2.973040e-04 0.000000e+00  -4.847663e-03 2.985421e-04 0.000000e+00  -5.141669e-03 2.990975e-04 0.000000e+00  -5.435875e-03 2.989899e-04 0.000000e+00  -5.729633e-03 2.982361e-04 0.000000e+00  -6.022310e-03 2.968500e-04 0.000000e+00  -6.313283e-03 2.948429e-04 0.000000e+00  -6.601941e-03 2.922237e-04 0.000000e+00  -6.887681e-03 2.889988e-04 0.000000e+00  -7.169904e-03 2.851728e-04 0.000000e+00  -7.448015e-03 2.807486e-04 0.000000e+00  -7.721423e-03 2.757274e-04 0.000000e+00  -7.989538e-03 2.701093e-04 0.000000e+00  -8.251770e-03 2.638938e-04 0.000000e+00  -8.507528e-03 2.570795e-04 0.000000e+00  -8.756223e-03 2.496651e-04 0.000000e+00  -8.997262e-03 2.416494e-04 0.000000e+00  -9.230054e-03 2.330313e-04 0.000000e+00  -9.454009e-03 2.238108e-04 0.000000e+00  -9.668537e-03 2.139890e-04 0.000000e+00  -9.873051e-03 2.035679e-04 0.000000e+00  -1.006697e-02 1.925517e-04 0.000000e+00  -1.024971e-02 1.809462e-04 0.000000e+00  -1.042071e-02 1.687594e-04 0.000000e+00  -1.057940e-02 1.560017e-04 0.000000e+00  -1.072524e-02 1.426862e-04 0.000000e+00  -1.085770e-02 1.288288e-04 0.000000e+00  -1.097626e-02 1.144485e-04 0.000000e+00  -1.108042e-02 9.956724e-05 0.000000e+00  -1.116973e-02 8.421046e-05 0.000000e+00  -1.124372e-02 6.840692e-05 0.000000e+00  -1.130200e-02 5.218884e-05 0.000000e+00  -1.134417e-02 3.559200e-05 0.000000e+00  -1.136990e-02 1.865566e-05 0.000000e+00  -1.137889e-02 1.422656e-06 0.000000e+00  -1.137088e-02 -1.606074e-05 0.000000e+00  -1.134566e-02 -3.374485e-05 0.000000e+00  -1.130306e-02 -5.157670e-05 0.000000e+00  -1.124297e-02 -6.950020e-05 0.000000e+00  -1.116536e-02 -8.745629e-05 0.000000e+00  -1.107021e-02 -1.053832e-04 0.000000e+00  -1.095761e-02 -1.232166e-04 0.000000e+00  -1.082767e-02 -1.408899e-04 0.000000e+00  -1.068061e-02 -1.583348e-04 0.000000e+00  -1.051667e-02 -1.754813e-04 0.000000e+00  -1.033620e-02 -1.922581e-04 0.000000e+00  -1.013959e-02 -2.085932e-04 0.000000e+00  -9.927310e-03 -2.244143e-04 0.000000e+00  -9.699908e-03 -2.396490e-04 0.000000e+00  -9.457990e-03 -2.542255e-04 0.000000e+00  -9.202233e-03 -2.680729e-04 0.000000e+00  -8.933384e-03 -2.811219e-04 0.000000e+00  -8.652254e-03 -2.933048e-04 0.000000e+00  -8.359717e-03 -3.045569e-04 0.000000e+00  -8.056710e-03 -3.148160e-04 0.000000e+00  -7.744226e-03 -3.240233e-04 0.000000e+00  -7.423315e-03 -3.321243e-04 0.000000e+00  -7.095073e-03 -3.390684e-04 0.000000e+00  -6.760646e-03 -3.448100e-04 0.000000e+00  -6.421220e-03 -3.493086e-04 0.000000e+00  -6.078016e-03 -3.525295e-04 0.000000e+00  -5.732286e-03 -3.544436e-04 0.000000e+00  -5.385308e-03 -3.550283e-04 0.000000e+00  -5.038375e-03 -3.542674e-04 0.000000e+00  -4.692795e-03 -3.521516e-04 0.000000e+00  -4.349881e-03 -3.486786e-04 0.000000e+00  -4.010943e-03 -3.438530e-04 0.000000e+00  -3.677284e-03 -3.376869e-04 0.000000e+00  -3.350190e-03 -3.301998e-04 0.000000e+00  -3.030926e-03 -3.214182e-04 0.000000e+00  -2.720726e-03 -3.113766e-04 0.000000e+00  -2.420787e-03 -3.001165e-04 0.000000e+00  -2.132263e-03 -2.876871e-04 0.000000e+00  -1.856254e-03 -2.741448e-04 0.000000e+00  -1.593803e-03 -2.595537e-04 0.000000e+00  -1.345886e-03 -2.439852e-04 0.000000e+00  -1.113404e-03 -2.275184e-04 0.000000e+00  -8.971789e-04 -2.102404e-04 0.000000e+00  -6.979418e-04 -1.922463e-04 0.000000e+00  -5.163262e-04 -1.736400e-04 0.000000e+00  -3.528588e-04 -1.545348e-04 0.000000e+00  -2.079497e-04 -1.350548e-04 0.000000e+00  -8.188125e-05 -1.153362e-04 0.000000e+00  2.520517e-05 -9.552930e-05 0.000000e+00  1.133238e-04 -7.580183e-05 0.000000e+00  1.826629e-04 -5.634247e-05 0.000000e+00  2.336067e-04 -3.736629e-05 0.000000e+00  2.667629e-04 -1.912182e-05 0.000000e+00  2.829970e-04 -1.900642e-06 0.000000e+00  2.834746e-04 1.394987e-05 0.000000e+00  2.697161e-04 2.800949e-05 0.000000e+00  2.436629e-04 3.976294e-05 0.000000e+00  2.077590e-04 4.857260e-05 0.000000e+00  1.650425e-04 5.364958e-05 0.000000e+00  1.192327e-04 5.403888e-05 0.000000e+00  7.476559e-05 4.867737e-05 0.000000e+00  3.668352e-05 3.670160e-05 0.000000e+00  1.004936e-05 1.862137e-05 0.000000e+00  0.000000e+00 0.000000e+00 0.000000e+00  0.000000e+00 0.000000e+00 0.000000e+00  1.035589e-05 -3.906376e-05 0.000000e+00  3.127951e-05 -5.465784e-05 0.000000e+00  5.124642e-05 -5.104447e-05 0.000000e+00  6.208520e-05 -3.291855e-05 0.000000e+00  5.764193e-05 -4.498852e-06 0.000000e+00  3.339387e-05 3.083237e-05 0.000000e+00  -1.379431e-05 7.050219e-05 0.000000e+00  -8.593254e-05 1.125954e-04 0.000000e+00  -1.841317e-04 1.557005e-04 0.000000e+00  -3.088046e-04 1.987822e-04 0.000000e+00  -4.598289e-04 2.410854e-04 0.000000e+00  -6.366773e-04 2.820644e-04 0.000000e+00  -8.385211e-04 3.213307e-04 0.000000e+00  -1.064311e-03 3.586148e-04 0.000000e+00  -1.312842e-03 3.937378e-04 0.000000e+00  -1.582799e-03 4.265901e-04 0.000000e+00  -1.872802e-03 4.571145e-04 0.000000e+00  -2.181430e-03 4.852941e-04 0.000000e+00  -2.507250e-03 5.111421e-04 0.000000e+00  -2.848831e-03 5.346940e-04 0.000000e+00  -3.204759e-03 5.560017e-04 0.000000e+00  -3.573646e-03 5.751281e-04 0.000000e+00  -3.954139e-03 5.921434e-04 0.000000e+00  -4.344924e-03 6.071218e-04 0.000000e+00  -4.744725e-03 6.201388e-04 0.000000e+00  -5.152312e-03 6.312695e-04 0.000000e+00  -5.566493e-03 6.405864e-04 0.000000e+00  -5.986122e-03 6.481588e-04 0.000000e+00  -6.410088e-03 6.540513e-04 0.000000e+00  -6.837319e-03 6.583233e-04 0.000000e+00  -7.266775e-03 6.610289e-04 0.000000e+00  -7.697449e-03 6.622158e-04 0.000000e+00  -8.128359e-03 6.619261e-04 0.000000e+00  -8.558548e-03 6.601958e-04 0.000000e+00  -8.987081e-03 6.570552e-04 0.000000e+00  -9.413037e-03 6.525289e-04 0.000000e+00  -9.835513e-03 6.466366e-04 0.000000e+00  -1.025362e-02 6.393932e-04 0.000000e+00  -1.066646e-02 6.308095e-04 0.000000e+00  -1.107317e-02 6.208926e-04 0.000000e+00  -1.147286e-02 6.096466e-04 0.000000e+00  -1.186468e-02 5.970733e-04 0.000000e+00  -1.224775e-02 5.831727e-04 0.000000e+00  -1.262120e-02 5.679439e-04 0.000000e+00  -1.298417e-02 5.513856e-04 0.000000e+00  -1.333580e-02 5.334967e-04 0.000000e+00  -1.367521e-02 5.142772e-04 0.000000e+00  -1.400156e-02 4.937291e-04 0.000000e+00  -1.431397e-02 4.718562e-04 0.000000e+00  -1.461160e-02 4.486657e-04 0.000000e+00  -1.489361e-02 4.241683e-04 0.000000e+00  -1.515916e-02 3.983788e-04 0.000000e+00  -1.540743e-02 3.713168e-04 0.000000e+00  -1.563761e-02 3.430071e-04 0.000000e+00  -1.584892e-02 3.134803e-04 0.000000e+00  -1.604060e-02 2.827729e-04 0.000000e+00  -1.621191e-02 2.509282e-04 0.000000e+00  -1.636215e-02 2.179962e-04 0.000000e+00  -1.649064e-02 1.840339e-04 0.000000e+00  -1.659677e-02 1.491058e-04 0.000000e+00  -1.667996e-02 1.132838e-04 0.000000e+00  -1.673965e-02 7.664734e-05 0.000000e+00  -1.677539e-02 3.928342e-05 0.000000e+00  -1.678675e-02 1.286654e-06 0.000000e+00  -1.677337e-02 -3.724094e-05 0.000000e+00  -1.673496e-02 -7.619009e-05 0.000000e+00  -1.667132e-02 -1.154445e-04 0.000000e+00  -1.658230e-02 -1.548813e-04 0.000000e+00  -1.646784e-02 -1.943711e-04 0.000000e+00  -1.632797e-02 -2.337789e-04 0.000000e+00  -1.616281e-02 -2.729643e-04 0.000000e+00  -1.597256e-02 -3.117825e-04 0.000000e+00  -1.575752e-02 -3.500842e-04 0.000000e+00  -1.551808e-02 -3.877173e-04 0.000000e+00  -1.525474e-02 -4.245270e-04 0.000000e+00  -1.496808e-02 -4.603569e-04 0.000000e+00  -1.465879e-02 -4.950499e-04 0.000000e+00  -1.432766e-02 -5.284491e-04 0.000000e+00  -1.397558e-02 -5.603990e-04 0.000000e+00  -1.360354e-02 -5.907460e-04 0.000000e+00  -1.321259e-02 -6.193400e-04 0.000000e+00  -1.280393e-02 -6.460352e-04 0.000000e+00  -1.237881e-02 -6.706909e-04 0.000000e+00  -1.193858e-02 -6.931733e-04 0.000000e+00  -1.148467e-02 -7.133555e-04 0.000000e+00  -1.101859e-02 -7.311195e-04 0.000000e+00  -1.054191e-02 -7.463566e-04 0.000000e+00  -1.005627e-02 -7.589683e-04 0.000000e+00  -9.563373e-03 -7.688677e-04 0.000000e+00  -9.064970e-03 -7.759797e-04 0.000000e+00  -8.562854e-03 -7.802424e-04 0.000000e+00  -8.058850e-03 -7.816072e-04 0.000000e+00  -7.554810e-03 -7.800398e-04 0.000000e+00  -7.052604e-03 -7.755205e-04 0.000000e+00  -6.554107e-03 -7.680449e-04 0.000000e+00  -6.061192e-03 -7.576242e-04 0.000000e+00  -5.575719e-03 -7.442850e-04 0.000000e+00  -5.099526e-03 -7.280705e-04 0.000000e+00  -4.