<?xml version="1.0"?>
<VTKFile type="UnstructuredGrid"  version="0.1"  >
<UnstructuredGrid>
<Piece  NumberOfPoints="16641" NumberOfCells="32768">
<Points>
<DataArray  type="Float32"  NumberOfComponents="3"  format="ascii">0 0 0  0.0078125 0 0  0.015625 0 0  0.0234375 0 0  0.03125 0 0  0.0390625 0 0  0.046875 0 0  0.0546875 0 0  0.0625 0 0  0.0703125 0 0  0.078125 0 0  0.0859375 0 0  0.09375 0 0  0.101562 0 0  0.109375 0 0  0.117188 0 0  0.125 0 0  0.132812 0 0  0.140625 0 0  0.148438 0 0  0.15625 0 0  0.164062 0 0  0.171875 0 0  0.179688 0 0  0.1875 0 0  0.195312 0 0  0.203125 0 0  0.210938 0 0  0.21875 0 0  0.226562 0 0  0.234375 0 0  0.242188 0 0  0.25 0 0  0.257812 0 0  0.265625 0 0  0.273438 0 0  0.28125 0 0  0.289062 0 0  0.296875 0 0  0.304688 0 0  0.3125 0 0  0.320312 0 0  0.328125 0 0  0.335938 0 0  0.34375 0 0  0.351562 0 0  0.359375 0 0  0.367188 0 0  0.375 0 0  0.382812 0 0  0.390625 0 0  0.398438 0 0  0.40625 0 0  0.414062 0 0  0.421875 0 0  0.429688 0 0  0.4375 0 0  0.445312 0 0  0.453125 0 0  0.460938 0 0  0.46875 0 0  0.476562 0 0  0.484375 0 0  0.492188 0 0  0.5 0 0  0.507812 0 0  0.515625 0 0  0.523438 0 0  0.53125 0 0  0.539062 0 0  0.546875 0 0  0.554688 0 0  0.5625 0 0  0.570312 0 0  0.578125 0 0  0.585938 0 0  0.59375 0 0  0.601562 0 0  0.609375 0 0  0.617188 0 0  0.625 0 0  0.632812 0 0  0.640625 0 0  0.648438 0 0  0.65625 0 0  0.664062 0 0  0.671875 0 0  0.679688 0 0  0.6875 0 0  0.695312 0 0  0.703125 0 0  0.710938 0 0  0.71875 0 0  0.726562 0 0  0.734375 0 0  0.742188 0 0  0.75 0 0  0.757812 0 0  0.765625 0 0  0.773438 0 0  0.78125 0 0  0.789062 0 0  0.796875 0 0  0.804688 0 0  0.8125 0 0  0.820312 0 0  0.828125 0 0  0.835938 0 0  0.84375 0 0  0.851562 0 0  0.859375 0 0  0.867188 0 0  0.875 0 0  0.882812 0 0  0.890625 0 0  0.898438 0 0  0.90625 0 0  0.914062 0 0  0.921875 0 0  0.929688 0 0  0.9375 0 0  0.945312 0 0  0.953125 0 0  0.960938 0 0  0.96875 0 0  0.976562 0 0  0.984375 0 0  0.992188 0 0  1 0 0  0 0.0078125 0  0.0078125 0.0078125 0  0.015625 0.0078125 0  0.0234375 0.0078125 0  0.03125 0.0078125 0  0.0390625 0.0078125 0  0.046875 0.0078125 0  0.0546875 0.0078125 0  0.0625 0.0078125 0  0.0703125 0.0078125 0  0.078125 0.0078125 0  0.0859375 0.0078125 0  0.09375 0.0078125 0  0.101562 0.0078125 0  0.109375 0.0078125 0  0.117188 0.0078125 0  0.125 0.0078125 0  0.132812 0.0078125 0  0.140625 0.0078125 0  0.148438 0.0078125 0  0.15625 0.0078125 0  0.164062 0.0078125 0  0.171875 0.0078125 0  0.179688 0.0078125 0  0.1875 0.0078125 0  0.195312 0.0078125 0  0.203125 0.0078125 0  0.210938 0.0078125 0  0.21875 0.0078125 0  0.226562 0.0078125 0  0.234375 0.0078125 0  0.242188 0.0078125 0  0.25 0.0078125 0  0.257812 0.0078125 0  0.265625 0.0078125 0  0.273438 0.0078125 0  0.28125 0.0078125 0  0.289062 0.0078125 0  0.296875 0.0078125 0  0.304688 0.0078125 0  0.3125 0.0078125 0  0.320312 0.0078125 0  0.328125 0.0078125 0  0.335938 0.0078125 0  0.34375 0.0078125 0  0.351562 0.0078125 0  0.359375 0.0078125 0  0.367188 0.0078125 0  0.375 0.0078125 0  0.382812 0.0078125 0  0.390625 0.0078125 0  0.398438 0.0078125 0  0.40625 0.0078125 0  0.414062 0.0078125 0  0.421875 0.0078125 0  0.429688 0.0078125 0  0.4375 0.0078125 0  0.445312 0.0078125 0  0.453125 0.0078125 0  0.460938 0.0078125 0  0.46875 0.0078125 0  0.476562 0.0078125 0  0.484375 0.0078125 0  0.492188 0.0078125 0  0.5 0.0078125 0  0.507812 0.0078125 0  0.515625 0.0078125 0  0.523438 0.0078125 0  0.53125 0.0078125 0  0.539062 0.0078125 0  0.546875 0.0078125 0  0.554688 0.0078125 0  0.5625 0.0078125 0  0.570312 0.0078125 0  0.578125 0.0078125 0  0.585938 0.0078125 0  0.59375 0.0078125 0  0.601562 0.0078125 0  0.609375 0.0078125 0  0.617188 0.0078125 0  0.625 0.0078125 0  0.632812 0.0078125 0  0.640625 0.0078125 0  0.648438 0.0078125 0  0.65625 0.0078125 0  0.664062 0.0078125 0  0.671875 0.0078125 0  0.679688 0.0078125 0  0.6875 0.0078125 0  0.695312 0.0078125 0  0.703125 0.0078125 0  0.710938 0.0078125 0  0.71875 0.0078125 0  0.726562 0.0078125 0  0.734375 0.0078125 0  0.742188 0.0078125 0  0.75 0.0078125 0  0.757812 0.0078125 0  0.765625 0.0078125 0  0.773438 0.0078125 0  0.78125 0.0078125 0  0.789062 0.0078125 0  0.796875 0.0078125 0  0.804688 0.0078125 0  0.8125 0.0078125 0  0.820312 0.0078125 0  0.828125 0.0078125 0  0.835938 0.0078125 0  0.84375 0.0078125 0  0.851562 0.0078125 0  0.859375 0.0078125 0  0.867188 0.0078125 0  0.875 0.0078125 0  0.882812 0.0078125 0  0.890625 0.0078125 0  0.898438 0.0078125 0  0.90625 0.0078125 0  0.914062 0.0078125 0  0.921875 0.0078125 0  0.929688 0.0078125 0  0.9375 0.0078125 0  0.945312 0.0078125 0  0.953125 0.0078125 0  0.960938 0.0078125 0  0.96875 0.0078125 0  0.976562 0.0078125 0  0.984375 0.0078125 0  0.992188 0.0078125 0  1 0.0078125 0  0 0.015625 0  0.0078125 0.015625 0  0.015625 0.015625 0  0.0234375 0.015625 0  0.03125 0.015625 0  0.0390625 0.015625 0  0.046875 0.015625 0  0.0546875 0.015625 0  0.0625 0.015625 0  0.0703125 0.015625 0  0.078125 0.015625 0  0.0859375 0.015625 0  0.09375 0.015625 0  0.101562 0.015625 0  0.109375 0.015625 0  0.117188 0.015625 0  0.125 0.015625 0  0.132812 0.015625 0  0.140625 0.015625 0  0.148438 0.015625 0  0.15625 0.015625 0  0.164062 0.015625 0  0.171875 0.015625 0  0.179688 0.015625 0  0.1875 0.015625 0  0.195312 0.015625 0  0.203125 0.015625 0  0.210938 0.015625 0  0.21875 0.015625 0  0.226562 0.015625 0  0.234375 0.015625 0  0.242188 0.015625 0  0.25 0.015625 0  0.257812 0.015625 0  0.265625 0.015625 0  0.273438 0.015625 0  0.28125 0.015625 0  0.289062 0.015625 0  0.296875 0.015625 0  0.304688 0.015625 0  0.3125 0.015625 0  0.320312 0.015625 0  0.328125 0.015625 0  0.335938 0.015625 0  0.34375 0.015625 0  0.351562 0.015625 0  0.359375 0.015625 0  0.367188 0.015625 0  0.375 0.015625 0  0.382812 0.015625 0  0.390625 0.015625 0  0.398438 0.015625 0  0.40625 0.015625 0  0.414062 0.015625 0  0.421875 0.015625 0  0.429688 0.015625 0  0.4375 0.015625 0  0.445312 0.015625 0  0.453125 0.015625 0  0.460938 0.015625 0  0.46875 0.015625 0  0.476562 0.015625 0  0.484375 0.015625 0  0.492188 0.015625 0  0.5 0.015625 0  0.507812 0.015625 0  0.515625 0.015625 0  0.523438 0.015625 0  0.53125 0.015625 0  0.539062 0.015625 0  0.546875 0.015625 0  0.554688 0.015625 0  0.5625 0.015625 0  0.570312 0.015625 0  0.578125 0.015625 0  0.585938 0.015625 0  0.59375 0.015625 0  0.601562 0.015625 0  0.609375 0.015625 0  0.617188 0.015625 0  0.625 0.015625 0  0.632812 0.015625 0  0.640625 0.015625 0  0.648438 0.015625 0  0.65625 0.015625 0  0.664062 0.015625 0  0.671875 0.015625 0  0.679688 0.015625 0  0.6875 0.015625 0  0.695312 0.015625 0  0.703125 0.015625 0  0.710938 0.015625 0  0.71875 0.015625 0  0.726562 0.015625 0  0.734375 0.015625 0  0.742188 0.015625 0  0.75 0.015625 0  0.757812 0.015625 0  0.765625 0.015625 0  0.773438 0.015625 0  0.78125 0.015625 0  0.789062 0.015625 0  0.796875 0.015625 0  0.804688 0.015625 0  0.8125 0.015625 0  0.820312 0.015625 0  0.828125 0.015625 0  0.835938 0.015625 0  0.84375 0.015625 0  0.851562 0.015625 0  0.859375 0.015625 0  0.867188 0.015625 0  0.875 0.015625 0  0.882812 0.015625 0  0.890625 0.015625 0  0.898438 0.015625 0  0.90625 0.015625 0  0.914062 0.015625 0  0.921875 0.015625 0  0.929688 0.015625 0  0.9375 0.015625 0  0.945312 0.015625 0  0.953125 0.015625 0  0.960938 0.015625 0  0.96875 0.015625 0  0.976562 0.015625 0  0.984375 0.015625 0  0.992188 0.015625 0  1 0.015625 0  0 0.0234375 0  0.0078125 0.0234375 0  0.015625 0.0234375 0  0.0234375 0.0234375 0  0.03125 0.0234375 0  0.0390625 0.0234375 0  0.046875 0.0234375 0  0.0546875 0.0234375 0  0.0625 0.0234375 0  0.0703125 0.0234375 0  0.078125 0.0234375 0  0.0859375 0.0234375 0  0.09375 0.0234375 0  0.101562 0.0234375 0  0.109375 0.0234375 0  0.117188 0.0234375 0  0.125 0.0234375 0  0.132812 0.0234375 0  0.140625 0.0234375 0  0.148438 0.0234375 0  0.15625 0.0234375 0  0.164062 0.0234375 0  0.171875 0.0234375 0  0.179688 0.0234375 0  0.1875 0.0234375 0  0.195312 0.0234375 0  0.203125 0.0234375 0  0.210938 0.0234375 0  0.21875 0.0234375 0  0.226562 0.0234375 0  0.234375 0.0234375 0  0.242188 0.0234375 0  0.25 0.0234375 0  0.257812 0.0234375 0  0.265625 0.0234375 0  0.273438 0.0234375 0  0.28125 0.0234375 0  0.289062 0.0234375 0  0.296875 0.0234375 0  0.304688 0.0234375 0  0.3125 0.0234375 0  0.320312 0.0234375 0  0.328125 0.0234375 0  0.335938 0.0234375 0  0.34375 0.0234375 0  0.351562 0.0234375 0  0.359375 0.0234375 0  0.367188 0.0234375 0  0.375 0.0234375 0  0.382812 0.0234375 0  0.390625 0.0234375 0  0.398438 0.0234375 0  0.40625 0.0234375 0  0.414062 0.0234375 0  0.421875 0.0234375 0  0.429688 0.0234375 0  0.4375 0.0234375 0  0.445312 0.0234375 0  0.453125 0.0234375 0  0.460938 0.0234375 0  0.46875 0.0234375 0  0.476562 0.0234375 0  0.484375 0.0234375 0  0.492188 0.0234375 0  0.5 0.0234375 0  0.507812 0.0234375 0  0.515625 0.0234375 0  0.523438 0.0234375 0  0.53125 0.0234375 0  0.539062 0.0234375 0  0.546875 0.0234375 0  0.554688 0.0234375 0  0.5625 0.0234375 0  0.570312 0.0234375 0  0.578125 0.0234375 0  0.585938 0.0234375 0  0.59375 0.0234375 0  0.601562 0.0234375 0  0.609375 0.0234375 0  0.617188 0.0234375 0  0.625 0.0234375 0  0.632812 0.0234375 0  0.640625 0.0234375 0  0.648438 0.0234375 0  0.65625 0.0234375 0  0.664062 0.0234375 0  0.671875 0.0234375 0  0.679688 0.0234375 0  0.6875 0.0234375 0  0.695312 0.0234375 0  0.703125 0.0234375 0  0.710938 0.0234375 0  0.71875 0.0234375 0  0.726562 0.0234375 0  0.734375 0.0234375 0  0.742188 0.0234375 0  0.75 0.0234375 0  0.757812 0.0234375 0  0.765625 0.0234375 0  0.773438 0.0234375 0  0.78125 0.0234375 0  0.789062 0.0234375 0  0.796875 0.0234375 0  0.804688 0.0234375 0  0.8125 0.0234375 0  0.820312 0.0234375 0  0.828125 0.0234375 0  0.835938 0.0234375 0  0.84375 0.0234375 0  0.851562 0.0234375 0  0.859375 0.0234375 0  0.867188 0.0234375 0  0.875 0.0234375 0  0.882812 0.0234375 0  0.890625 0.0234375 0  0.898438 0.0234375 0  0.90625 0.0234375 0  0.914062 0.0234375 0  0.921875 0.0234375 0  0.929688 0.0234375 0  0.9375 0.0234375 0  0.945312 0.0234
[...]
<PointData  Vectors="u"> 
<DataArray  type="Float32"  Name="u"  NumberOfComponents="3" format="ascii">0.000000e+00 0.000000e+00 0.000000e+00  0.000000e+00 0.000000e+00 0.000000e+00  0.000000e+00 0.000000e+00 0.000000e+00  0.000000e+00 0.000000e+00 0.000000e+00  0.000000e+00 0.000000e+00 0.000000e+00  0.000000e+00 0.000000e+00 0.000000e+00  0.000000e+00 0.000000e+00 0.000000e+00  0.000000e+00 0.000000e+00 0.000000e+00  0.000000e+00 0.000000e+00 0.000000e+00  0.000000e+00 0.000000e+00 0.000000e+00  0.000000e+00 0.000000e+00 0.000000e+00  0.000000e+00 0.000000e+00 0.000000e+00  0.000000e+00 0.000000e+00 0.000000e+00  0.000000e+00 0.000000e+00 0.000000e+00  0.000000e+00 0.000000e+00 0.000000e+00  0.000000e+00 0.000000e+00 0.000000e+00  0.000000e+00 0.000000e+00 0.000000e+00  0.000000e+00 0.000000e+00 0.000000e+00  0.000000e+00 0.000000e+00 0.000000e+00  0.000000e+00 0.000000e+00 0.000000e+00  0.000000e+00 0.000000e+00 0.000000e+00  0.000000e+00 0.000000e+00 0.000000e+00  0.000000e+00 0.000000e+00 0.000000e+00  0.000000e+00 0.000000e+00 0.000000e+00  0.000000e+00 0.000000e+00 0.000000e+00  0.000000e+00 0.000000e+00 0.000000e+00  0.000000e+00 0.000000e+00 0.000000e+00  0.000000e+00 0.000000e+00 0.000000e+00  0.000000e+00 0.000000e+00 0.000000e+00  0.000000e+00 0.000000e+00 0.000000e+00  0.000000e+00 0.000000e+00 0.000000e+00  0.000000e+00 0.000000e+00 0.000000e+00  0.000000e+00 0.000000e+00 0.000000e+00  0.000000e+00 0.000000e+00 0.000000e+00  0.000000e+00 0.000000e+00 0.000000e+00  0.000000e+00 0.000000e+00 0.000000e+00  0.000000e+00 0.000000e+00 0.000000e+00  0.000000e+00 0.000000e+00 0.000000e+00  0.000000e+00 0.000000e+00 0.000000e+00  0.000000e+00 0.000000e+00 0.000000e+00  0.000000e+00 0.000000e+00 0.000000e+00  0.000000e+00 0.000000e+00 0.000000e+00  0.000000e+00 0.000000e+00 0.000000e+00  0.000000e+00 0.000000e+00 0.000000e+00  0.000000e+00 0.000000e+00 0.000000e+00  0.000000e+00 0.000000e+00 0.000000e+00  0.000000e+00 0.000000e+00 0.000000e+00  0.000000e+00 0.000000e+00 0.000000e+00  0.000000e+00 0.000000e+00 0.000000e+00  0.000000e+00 0.000000e+00 0.000000e+00  0.000000e+00 0.000000e+00 0.000000e+00  0.000000e+00 0.000000e+00 0.000000e+00  0.000000e+00 0.000000e+00 0.000000e+00  0.000000e+00 0.000000e+00 0.000000e+00  0.000000e+00 0.000000e+00 0.000000e+00  0.000000e+00 0.000000e+00 0.000000e+00  0.000000e+00 0.000000e+00 0.000000e+00  0.000000e+00 0.000000e+00 0.000000e+00  0.000000e+00 0.000000e+00 0.000000e+00  0.000000e+00 0.000000e+00 0.000000e+00  0.000000e+00 0.000000e+00 0.000000e+00  0.000000e+00 0.000000e+00 0.000000e+00  0.000000e+00 0.000000e+00 0.000000e+00  0.000000e+00 0.000000e+00 0.000000e+00  0.000000e+00 0.000000e+00 0.000000e+00  0.000000e+00 0.000000e+00 0.000000e+00  0.000000e+00 0.000000e+00 0.000000e+00  0.000000e+00 0.000000e+00 0.000000e+00  0.000000e+00 0.000000e+00 0.000000e+00  0.000000e+00 0.000000e+00 0.000000e+00  0.000000e+00 0.000000e+00 0.000000e+00  0.000000e+00 0.000000e+00 0.000000e+00  0.000000e+00 0.000000e+00 0.000000e+00  0.000000e+00 0.000000e+00 0.000000e+00  0.000000e+00 0.000000e+00 0.000000e+00  0.000000e+00 0.000000e+00 0.000000e+00  0.000000e+00 0.000000e+00 0.000000e+00  0.000000e+00 0.000000e+00 0.000000e+00  0.000000e+00 0.000000e+00 0.000000e+00  0.000000e+00 0.000000e+00 0.000000e+00  0.000000e+00 0.000000e+00 0.000000e+00  0.000000e+00 0.000000e+00 0.000000e+00  0.000000e+00 0.000000e+00 0.000000e+00  0.000000e+00 0.000000e+00 0.000000e+00  0.000000e+00 0.000000e+00 0.000000e+00  0.000000e+00 0.000000e+00 0.000000e+00  0.000000e+00 0.000000e+00 0.000000e+00  0.000000e+00 0.000000e+00 0.000000e+00  0.000000e+00 0.000000e+00 0.000000e+00  0.000000e+00 0.000000e+00 0.000000e+00  0.000000e+00 0.000000e+00 0.000000e+00  0.000000e+00 0.000000e+00 0.000000e+00  0.000000e+00 0.000000e+00 0.000000e+00  0.000000e+00 0.000000e+00 0.000000e+00  0.000000e+00 0.000000e+00 0.000000e+00  0.000000e+00 0.000000e+00 0.000000e+00  0.000000e+00 0.000000e+00 0.000000e+00  0.000000e+00 0.000000e+00 0.000000e+00  0.000000e+00 0.000000e+00 0.000000e+00  0.000000e+00 0.000000e+00 0.000000e+00  0.000000e+00 0.000000e+00 0.000000e+00  0.000000e+00 0.000000e+00 0.000000e+00  0.000000e+00 0.000000e+00 0.000000e+00  0.000000e+00 0.000000e+00 0.000000e+00  0.000000e+00 0.000000e+00 0.000000e+00  0.000000e+00 0.000000e+00 0.000000e+00  0.000000e+00 0.000000e+00 0.000000e+00  0.000000e+00 0.000000e+00 0.000000e+00  0.000000e+00 0.000000e+00 0.000000e+00  0.000000e+00 0.000000e+00 0.000000e+00  0.000000e+00 0.000000e+00 0.000000e+00  0.000000e+00 0.000000e+00 0.000000e+00  0.000000e+00 0.000000e+00 0.000000e+00  0.000000e+00 0.000000e+00 0.000000e+00  0.000000e+00 0.000000e+00 0.000000e+00  0.000000e+00 0.000000e+00 0.000000e+00  0.000000e+00 0.000000e+00 0.000000e+00  0.000000e+00 0.000000e+00 0.000000e+00  0.000000e+00 0.000000e+00 0.000000e+00  0.000000e+00 0.000000e+00 0.000000e+00  0.000000e+00 0.000000e+00 0.000000e+00  0.000000e+00 0.000000e+00 0.000000e+00  0.000000e+00 0.000000e+00 0.000000e+00  0.000000e+00 0.000000e+00 0.000000e+00  0.000000e+00 0.000000e+00 0.000000e+00  0.000000e+00 0.000000e+00 0.000000e+00  0.000000e+00 0.000000e+00 0.000000e+00  0.000000e+00 0.000000e+00 0.000000e+00  0.000000e+00 0.000000e+00 0.000000e+00  0.000000e+00 0.000000e+00 0.000000e+00  1.304689e-05 -1.304063e-05 0.000000e+00  7.412254e-05 -4.561929e-05 0.000000e+00  1.916801e-04 -7.422143e-05 0.000000e+00  3.542791e-04 -9.493159e-05 0.000000e+00  5.480519e-04 -1.079416e-04 0.000000e+00  7.598497e-04 -1.143478e-04 0.000000e+00  9.784291e-04 -1.153459e-04 0.000000e+00  1.194523e-03 -1.119903e-04 0.000000e+00  1.400618e-03 -1.051634e-04 0.000000e+00  1.590687e-03 -9.558861e-05 0.000000e+00  1.759933e-03 -8.385343e-05 0.000000e+00  1.904569e-03 -7.043081e-05 0.000000e+00  2.021613e-03 -5.569762e-05 0.000000e+00  2.108755e-03 -3.994338e-05 0.000000e+00  2.164146e-03 -2.338897e-05 0.000000e+00  2.186319e-03 -6.190307e-06 0.000000e+00  2.174066e-03 1.155943e-05 0.000000e+00  2.126303e-03 2.981882e-05 0.000000e+00  2.042005e-03 4.858576e-05 0.000000e+00  1.920140e-03 6.789334e-05 0.000000e+00  1.759569e-03 8.780513e-05 0.000000e+00  1.559006e-03 1.083999e-04 0.000000e+00  1.317074e-03 1.297545e-04 0.000000e+00  1.032280e-03 1.519375e-04 0.000000e+00  7.029509e-04 1.750040e-04 0.000000e+00  3.273260e-04 1.989815e-04 0.000000e+00  -9.627061e-05 2.238547e-04 0.000000e+00  -5.694203e-04 2.495664e-04 0.000000e+00  -1.093665e-03 2.760205e-04 0.000000e+00  -1.670330e-03 3.030748e-04 0.000000e+00  -2.300272e-03 3.305346e-04 0.000000e+00  -2.983901e-03 3.581613e-04 0.000000e+00  -3.721300e-03 3.856842e-04 0.000000e+00  -4.512009e-03 4.127975e-04 0.000000e+00  -5.354744e-03 4.391586e-04 0.000000e+00  -6.247508e-03 4.644022e-04 0.000000e+00  -7.187809e-03 4.881523e-04 0.000000e+00  -8.172432e-03 5.100236e-04 0.000000e+00  -9.197162e-03 5.296238e-04 0.000000e+00  -1.025702e-02 5.465711e-04 0.000000e+00  -1.134658e-02 5.605079e-04 0.000000e+00  -1.245975e-02 5.711068e-04 0.000000e+00  -1.358961e-02 5.780815e-04 0.000000e+00  -1.472868e-02 5.812033e-04 0.000000e+00  -1.586946e-02 5.803114e-04 0.000000e+00  -1.700418e-02 5.753183e-04 0.000000e+00  -1.812470e-02 5.662177e-04 0.000000e+00  -1.922297e-02 5.530863e-04 0.000000e+00  -2.029145e-02 5.360750e-04 0.000000e+00  -2.132294e-02 5.154021e-04 0.000000e+00  -2.231046e-02 4.913472e-04 0.000000e+00  -2.324763e-02 4.642329e-04 0.000000e+00  -2.412896e-02 4.343993e-04 0.000000e+00  -2.494959e-02 4.021928e-04 0.000000e+00  -2.570513e-02 3.679591e-04 0.000000e+00  -2.639184e-02 3.320235e-04 0.000000e+00  -2.700678e-02 2.946709e-04 0.000000e+00  -2.754746e-02 2.561482e-04 0.000000e+00  -2.801172e-02 2.166728e-04 0.000000e+00  -2.839781e-02 1.764248e-04 0.000000e+00  -2.870440e-02 1.355410e-04 0.000000e+00  -2.893035e-02 9.413159e-05 0.000000e+00  -2.907469e-02 5.229979e-05 0.000000e+00  -2.913666e-02 1.014105e-05 0.000000e+00  -2.911573e-02 -3.225858e-05 0.000000e+00  -2.901149e-02 -7.480267e-05 0.000000e+00  -2.882378e-02 -1.173651e-04 0.000000e+00  -2.855276e-02 -1.597945e-04 0.000000e+00  -2.819881e-02 -2.019198e-04 0.000000e+00  -2.776269e-02 -2.435375e-04 0.000000e+00  -2.724567e-02 -2.843993e-04 0.000000e+00  -2.664956e-02 -3.242257e-04 0.000000e+00  -2.597661e-02 -3.627195e-04 0.000000e+00  -2.522963e-02 -3.995619e-04 0.000000e+00  -2.441225e-02 -4.344104e-04 0.000000e+00  -2.352879e-02 -4.669193e-04 0.000000e+00  -2.258402e-02 -4.967585e-04 0.000000e+00  -2.158329e-02 -5.236142e-04 0.000000e+00  -2.053281e-02 -5.471943e-04 0.000000e+00  -1.943934e-02 -5.672479e-04 0.000000e+00  -1.830977e-02 -5.835792e-04 0.000000e+00  -1.715134e-02 -5.960482e-04 0.000000e+00  -1.597179e-02 -6.045733e-04 0.000000e+00  -1.477898e-02 -6.091407e-04 0.000000e+00  -1.358042e-02 -6.098040e-04 0.000000e+00  -1.238350e-02 -6.066764e-04 0.000000e+00  -1.119562e-02 -5.999263e-04 0.000000e+00  -1.002384e-02 -5.897691e-04 0.000000e+00  -8.874471e-03 -5.764524e-04 0.000000e+00  -7.753359e-03 -5.602437e-04 0.000000e+00  -6.666104e-03 -5.414222e-04 0.000000e+00  -5.617762e-03 -5.202657e-04 0.000000e+00  -4.612592e-03 -4.970356e-04 0.000000e+00  -3.654378e-03 -4.719742e-04 0.000000e+00  -2.746691e-03 -4.453098e-04 0.000000e+00  -1.892643e-03 -4.172520e-04 0.000000e+00  -1.094725e-03 -3.879886e-04 0.000000e+00  -3.550741e-04 -3.576974e-04 0.000000e+00  3.243393e-04 -3.265609e-04 0.000000e+00  9.419427e-04 -2.947658e-04 0.000000e+00  1.496707e-03 -2.624994e-04 0.000000e+00  1.987965e-03 -2.299598e-04 0.000000e+00  2.415327e-03 -1.973646e-04 0.000000e+00  2.778865e-03 -1.649396e-04 0.000000e+00  3.079192e-03 -1.329065e-04 0.000000e+00  3.317325e-03 -1.014852e-04 0.000000e+00  3.494642e-03 -7.089628e-05 0.000000e+00  3.612962e-03 -4.134717e-05 0.000000e+00  3.674522e-03 -1.302232e-05 0.000000e+00  3.681882e-03 1.390935e-05 0.000000e+00  3.637922e-03 3.928548e-05 0.000000e+00  3.545848e-03 6.295274e-05 0.000000e+00  3.409149e-03 8.476432e-05 0.000000e+00  3.231598e-03 1.045623e-04 0.000000e+00  3.017347e-03 1.221608e-04 0.000000e+00  2.770963e-03 1.373373e-04 0.000000e+00  2.497433e-03 1.498204e-04 0.000000e+00  2.202328e-03 1.592651e-04 0.000000e+00  1.892035e-03 1.652309e-04 0.000000e+00  1.573883e-03 1.671637e-04 0.000000e+00  1.256266e-03 1.643712e-04 0.000000e+00  9.489770e-04 1.560018e-04 0.000000e+00  6.635120e-04 1.410543e-04 0.000000e+00  4.130950e-04 1.184754e-04 0.000000e+00  2.122125e-04 8.750839e-05 0.000000e+00  7.524163e-05 4.904512e-05 0.000000e+00  9.975355e-06 9.968607e-06 0.000000e+00  0.000000e+00 0.000000e+00 0.000000e+00  0.000000e+00 0.000000e+00 0.000000e+00  4.570264e-05 -7.416674e-05 0.000000e+00  1.808828e-04 -1.807055e-04 0.000000e+00  4.000253e-04 -2.752379e-04 0.000000e+00  6.867708e-04 -3.454577e-04 0.000000e+00  1.021352e-03 -3.903441e-04 0.000000e+00  1.383731e-03 -4.125117e-04 0.000000e+00  1.755788e-03 -4.154129e-04 0.000000e+00  2.121857e-03 -4.023967e-04 0.000000e+00  2.468770e-03 -3.764254e-04 0.000000e+00  2.785648e-03 -3.400182e-04 0.000000e+00  3.063606e-03 -2.952748e-04 0.000000e+00  3.295463e-03 -2.439194e-04 0.000000e+00  3.475436e-03 -1.873483e-04 0.000000e+00  3.598934e-03 -1.266492e-04 0.000000e+00  3.662213e-03 -6.266559e-05 0.000000e+00  3.662247e-03 3.993922e-06 0.000000e+00  3.596502e-03 7.295000e-05 0.000000e+00  3.462712e-03 1.440127e-04 0.000000e+00  3.258783e-03 2.171351e-04 0.000000e+00  2.982663e-03 2.923994e-04 0.000000e+00  2.632148e-03 3.700015e-04 0.000000e+00  2.204836e-03 4.501938e-04 0.000000e+00  1.698224e-03 5.332226e-04 0.000000e+00  1.109661e-03 6.193048e-04 0.000000e+00  4.362087e-04 7.086116e-04 0.000000e+00  -3.251875e-04 8.012133e-04 0.000000e+00  -1.177365e-03 8.970253e-04 0.000000e+00  -2.122951e-03 9.958082e-04 0.000000e+00  -3.164490e-03 1.097181e-03 0.000000e+00  -4.304108e-03 1.200594e-03 0.000000e+00  -5.543029e-03 1.305299e-03 0.000000e+00  -6.881643e-03 1.410387e-03 0.000000e+00  -8.319747e-03 1.514828e-03 0.000000e+00  -9.856130e-03 1.617462e-03 0.000000e+00  -1.148803e-02 1.716989e-03 0.000000e+00  -1.321139e-02 1.812028e-03 0.000000e+00  -1.502123e-02 1.901160e-03 0.000000e+00  -1.691128e-02 1.982934e-03 0.000000e+00  -1.887339e-02 2.055880e-03 0.000000e+00  -2.089805e-02 2.118572e-03 0.000000e+00  -2.297497e-02 2.169684e-03 0.000000e+00  -2.509270e-02 2.208010e-03 0.000000e+00  -2.723824e-02 2.232504e-03 0.000000e+00  -2.939772e-02 2.242342e-03 0.000000e+00  -3.155721e-02 2.236955e-03 0.000000e+00  -3.370241e-02 2.216050e-03 0.000000e+00  -3.581838e-02 2.179633e-03 0.000000e+00  -3.789036e-02 2.128019e-03 0.000000e+00  -3.990459e-02 2.061789e-03 0.000000e+00  -4.184796e-02 1.981771e-03 0.000000e+00  -4.370774e-02 1.889013e-03 0.000000e+00  -4.547229e-02 1.784717e-03 0.000000e+00  -4.713160e-02 1.670146e-03 0.000000e+00  -4.867679e-02 1.546581e-03 0.000000e+00  -5.009975e-02 1.415303e-03 0.000000e+00  -5.139357e-02 1.277517e-03 0.000000e+00  -5.255276e-02 1.134282e-03 0.000000e+00  -5.357265e-02 9.865162e-04 0.000000e+00  -5.444913e-02 8.350372e-04 0.000000e+00  -5.517884e-02 6.805271e-04 0.000000e+00  -5.575919e-02 5.235104e-04 0.000000e+00  -5.618799e-02 3.644162e-04 0.000000e+00  -5.646331e-02 2.036519e-04 0.000000e+00  -5.658369e-02 4.159656e-05 0.000000e+00  -5.654805e-02 -1.214058e-04 0.000000e+00  -5.635561e-02 -2.849729e-04 0.000000e+00  -5.600605e-02 -4.486117e-04 0.000000e+00  -5.549963e-02 -6.117365e-04 0.000000e+00  -5.483709e-02 -7.736930e-04 0.000000e+00  -5.401979e-02 -9.337059e-04 0.000000e+00  -5.305009e-02 -1.090836e-03 0.000000e+00  -5.193136e-02 -1.244027e-03 0.000000e+00  -5.066771e-02 -1.392166e-03 0.000000e+00  -4.926429e-02 -1.534055e-03 0.000000e+00  -4.772776e-02 -1.668408e-03 0.000000e+00  -4.606602e-02 -1.793932e-03 0.000000e+00  -4.428777e-02 -1.909387e-03 0.000000e+00  -4.240281e-02 -2.013596e-03 0.000000e+00  -4.042245e-02 -2.105457e-03 0.000000e+00  -3.835904e-02 -2.184018e-03 0.000000e+00  -3.622522e-02 -2.248528e-03 0.000000e+00  -3.403422e-02 -2.298438e-03 0.000000e+00  -3.180030e-02 -2.333409e-03 0.000000e+00  -2.953795e-02 -2.353349e-03 0.000000e+00  -2.726112e-02 -2.358411e-03 0.000000e+00  -2.498355e-02 -2.348967e-03 0.000000e+00  -2.271918e-02 -2.325593e-03 0.000000e+00  -2.048137e-02 -2.289043e-03 0.000000e+00  -1.828220e-02 -2.240195e-03 0.000000e+00  -1.613294e-02 -2.180015e-03 0.000000e+00  -1.404453e-02 -2.109522e-03 0.000000e+00  -1.202692e-02 -2.029750e-03 0.000000e+00  -1.008859e-02 -1.941690e-03 0.000000e+00  -8.237135e-03 -1.846279e-03 0.000000e+00  -6.479730e-03 -1.744417e-03 0.000000e+00  -4.822637e-03 -1.636953e-03 0.000000e+00  -3.270858e-03 -1.524657e-03 0.000000e+00  -1.828654e-03 -1.408269e-03 0.000000e+00  -4.998996e-04 -1.288544e-03 0.000000e+00  7.123563e-04 -1.166249e-03 0.000000e+00  1.806163e-03 -1.042139e-03 0.000000e+00  2.780296e-03 -9.169998e-04 0.000000e+00  3.634065e-03 -7.916791e-04 0.000000e+00  4.367655e-03 -6.670441e-04 0.000000e+00  4.982270e-03 -5.439370e-04 0.000000e+00  5.479859e-03 -4.231883e-04 0.000000e+00  5.863008e-03 -3.056293e-04 0.000000e+00  6.135111e-03 -1.920441e-04 0.000000e+00  6.300342e-03 -8.313288e-05 0.000000e+00  6.363475e-03 2.045636e-05 0.000000e+00  6.329868e-03 1.180935e-04 0.000000e+00  6.205512e-03 2.091770e-04 0.000000e+00  5.996952e-03 2.931268e-04 0.000000e+00  5.711289e-03 3.693192e-04 0.000000e+00  5.356345e-03 4.370275e-04 0.000000e+00  4.940722e-03 4.953979e-04 0.000000e+00  4.473807e-03 5.434080e-04 0.000000e+00  3.966015e-03 5.797888e-04 0.000000e+00  3.429169e-03 6.029592e-04 0.000000e+00  2.876627e-03 6.109878e-04 0.000000e+00  2.323393e-03 6.015496e-04 0.000000e+00  1.786488e-03 5.719218e-04 0.000000e+00  1.285189e-03 5.191407e-04 0.000000e+00  8.406079e-04 4.405024e-04 0.000000e+00  4.744849e-04 3.349352e-04 0.000000e+00  2.067249e-04 2.067165e-04 0.000000e+00  4.906323e-05 7.523918e-05 0.000000e+00  0.000000e+00 0.000000e+00 0.000000e+00  0.000000e+00 0.000000e+00 0.000000e+00  7.450809e-05 -1.920184e-04 0.000000e+00  2.760425e-04 -4.000582e-04 0.000000e+00  5.797694e-04 -5.787059e-04 0.000000e+00  9.617920e-04 -7.117055e-04 0.000000e+00  1.397779e-03 -7.968722e-04 0.000000e+00  1.863701e-03 -8.379186e-04 0.000000e+00  2.337340e-03 -8.405323e-04 0.000000e+00  2.798925e-03 -8.106729e-04 0.000000e+00  3.231367e-03 -7.538777e-04 0.000000e+00  3.620189e-03 -6.750245e-04 0.000000e+00  3.953297e-03 -5.782857e-04 0.000000e+00  4.220705e-03 -4.671572e-04 0.000000e+00  4.414217e-03 -3.445177e-04 0.000000e+00  4.527182e-03 -2.126423e-04 0.000000e+00  4.554103e-03 -7.332428e-05 0.000000e+00  4.490470e-03 7.211566e-05 0.000000e+00  4.332464e-03 2.228256e-04 0.000000e+00  4.076673e-03 3.783413e-04 0.000000e+00  3.719990e-03 5.384904e-04 0.000000e+00  3.259443e-03 7.033669e-04 0.000000e+00  2.691896e-03 8.733030e-04 0.000000e+00  2.014008e-03 1.048750e-03 0.000000e+00  1.222401e-03 1.230148e-03 0.000000e+00  3.135630e-04 1.417878e-03 0.000000e+00  -7.163777e-04 1.612234e-03 0.000000e+00  -1.871395e-03 1.813303e-03 0.000000e+00  -3.155089e-03 2.020850e-03 0.000000e+00  -4.570723e-03 2.234322e-03 0.000000e+00  -6.121443e-03 2.452873e-03 0.000000e+00  -7.809786e-03 2.675300e-03 0.000000e+00  -9.636988e-03 2.899990e-03 0.000000e+00  -1.160311e-02 3.124983e-03 0.000000e+00  -1.370739e-02 3.348067e-03 0.000000e+00  -1.594767e-02 3.566752e-03 0.000000e+00  -1.831959e-02 3.778258e-03 0.000000e+00  -2.081696e-02 3.979629e-03 0.000000e+00  -2.343238e-02 4.167842e-03 0.000000e+00  -2.615659e-02 4.339811e-03 0.000000e+00  -2.897778e-02 4.492425e-03 0.000000e+00  -3.188225e-02 4.622684e-03 0.000000e+00  -3.485528e-02 4.727816e-03 0.000000e+00  -3.788065e-02 4.805319e-03 0.000000e+00  -4.093999e-02 4.853048e-03 0.000000e+00  -4.401386e-02 4.869343e-03 0.000000e+00  -4.708285e-02 4.853088e-03 0.000000e+00  -5.012713e-02 4.803750e-03 0.000000e+00  -5.312605e-02 4.721428e-03 0.000000e+00  -5.605933e-02 4.606856e-03 0.000000e+00  -5.890814e-02 4.461323e-03 0.000000e+00  -6.165458e-02 4.286608e-03 0.000000e+00  -6.428131e-02 4.084945e-03 0.000000e+00  -6.677249e-02 3.858871e-03 0.000000e+00  -6.911449e-02 3.611035e-03 0.000000e+00  -7.129525e-02 3.344113e-03 0.000000e+00  -7.330368e-02 3.060776e-03 0.000000e+00  -7.513033e-02 2.763539e-03 0.000000e+00  -7.676761e-02 2.454602e-03 0.000000e+00  -7.820908e-02 2.135887e-03 0.000000e+00  -7.944897e-02 1.809105e-03 0.000000e+00  -8.048254e-02 1.475697e-03 0.000000e+00  -8.130610e-02 1.136778e-03 0.000000e+00  -8.191650e-02 7.932719e-04 0.000000e+00  -8.231095e-02 4.460618e-04 0.000000e+00  -8.248727e-02 9.597820e-05 0.000000e+00  -8.244387e-02 -2.562233e-04 0.000000e+00  -8.217956e-02 -6.097055e-04 0.000000e+00  -8.169380e-02 -9.633975e-04 0.000000e+00  -8.098684e-02 -1.316035e-03 0.000000e+00  -8.005960e-02 -1.666215e-03 0.000000e+00  -7.891389e-02 -2.012281e-03 0.000000e+00  -7.755285e-02 -2.352233e-03 0.000000e+00  -7.598104e-02 -2.683833e-03 0.000000e+00  -7.420403e-02 -3.004719e-03 0.000000e+00  -7.222878e-02 -3.312358e-03 0.000000e+00  -7.006436e-02 -3.604032e-03 0.000000e+00  -6.772155e-02 -3.877001e-03 0.000000e+00  -6.521219e-02 -4.128645e-03 0.000000e+00  -6.254961e-02 -4.356464e-03 0.000000e+00  -5.974931e-02 -4.558112e-03 0.000000e+00  -5.682818e-02 -4.731547e-03 0.000000e+00  -5.380355e-02 -4.875143e-03 0.000000e+00  -5.069360e-02 -4.987678e-03 0.000000e+00  -4.751801e-02 -5.068360e-03 0.000000e+00  -4.429688e-02 -5.116897e-03 0.000000e+00  -4.104964e-02 -5.133505e-03 0.000000e+00  -3.779555e-02 -5.118847e-03 0.000000e+00  -3.455431e-02 -5.074010e-03 0.000000e+00  -3.134497e-02 -5.000461e-03 0.000000e+00  -2.818492e-02 -4.899948e-03 0.000000e+00  -2.509052e-02 -4.774416e-03 0.000000e+00  -2.207780e-02 -4.625965e-03 0.000000e+00  -1.916152e-02 -4.456760e-03 0.000000e+00  -1.635437e-02 -4.268916e-03 0.000000e+00  -1.366775e-02 -4.064480e-03 0.000000e+00  -1.111250e-02 -3.845463e-03 0.000000e+00  -8.698040e-03 -3.613791e-03 0.000000e+00  -6.431909e-03 -3.371250e-03 0.000000e+00  -4.320467e-03 -3.119566e-03 0.000000e+00  -2.369419e-03 -2.860495e-03 0.000000e+00  -5.831887e-04 -2.595797e-0