<?xml version="1.0"?>
<VTKFile type="UnstructuredGrid"  version="0.1"  >
<UnstructuredGrid>
<Piece  NumberOfPoints="16641" NumberOfCells="32768">
<Points>
<DataArray  type="Float64"  NumberOfComponents="3"  format="ascii">0 0 0  0.0078125 0 0  0.015625 0 0  0.0234375 0 0  0.03125 0 0  0.0390625 0 0  0.046875 0 0  0.0546875 0 0  0.0625 0 0  0.0703125 0 0  0.078125 0 0  0.0859375 0 0  0.09375 0 0  0.1015625 0 0  0.109375 0 0  0.1171875 0 0  0.125 0 0  0.1328125 0 0  0.140625 0 0  0.1484375 0 0  0.15625 0 0  0.1640625 0 0  0.171875 0 0  0.1796875 0 0  0.1875 0 0  0.1953125 0 0  0.203125 0 0  0.2109375 0 0  0.21875 0 0  0.2265625 0 0  0.234375 0 0  0.2421875 0 0  0.25 0 0  0.2578125 0 0  0.265625 0 0  0.2734375 0 0  0.28125 0 0  0.2890625 0 0  0.296875 0 0  0.3046875 0 0  0.3125 0 0  0.3203125 0 0  0.328125 0 0  0.3359375 0 0  0.34375 0 0  0.3515625 0 0  0.359375 0 0  0.3671875 0 0  0.375 0 0  0.3828125 0 0  0.390625 0 0  0.3984375 0 0  0.40625 0 0  0.4140625 0 0  0.421875 0 0  0.4296875 0 0  0.4375 0 0  0.4453125 0 0  0.453125 0 0  0.4609375 0 0  0.46875 0 0  0.4765625 0 0  0.484375 0 0  0.4921875 0 0  0.5 0 0  0.5078125 0 0  0.515625 0 0  0.5234375 0 0  0.53125 0 0  0.5390625 0 0  0.546875 0 0  0.5546875 0 0  0.5625 0 0  0.5703125 0 0  0.578125 0 0  0.5859375 0 0  0.59375 0 0  0.6015625 0 0  0.609375 0 0  0.6171875 0 0  0.625 0 0  0.6328125 0 0  0.640625 0 0  0.6484375 0 0  0.65625 0 0  0.6640625 0 0  0.671875 0 0  0.6796875 0 0  0.6875 0 0  0.6953125 0 0  0.703125 0 0  0.7109375 0 0  0.71875 0 0  0.7265625 0 0  0.734375 0 0  0.7421875 0 0  0.75 0 0  0.7578125 0 0  0.765625 0 0  0.7734375 0 0  0.78125 0 0  0.7890625 0 0  0.796875 0 0  0.8046875 0 0  0.8125 0 0  0.8203125 0 0  0.828125 0 0  0.8359375 0 0  0.84375 0 0  0.8515625 0 0  0.859375 0 0  0.8671875 0 0  0.875 0 0  0.8828125 0 0  0.890625 0 0  0.8984375 0 0  0.90625 0 0  0.9140625 0 0  0.921875 0 0  0.9296875 0 0  0.9375 0 0  0.9453125 0 0  0.953125 0 0  0.9609375 0 0  0.96875 0 0  0.9765625 0 0  0.984375 0 0  0.9921875 0 0  1 0 0  0 0.0078125 0  0.0078125 0.0078125 0  0.015625 0.0078125 0  0.0234375 0.0078125 0  0.03125 0.0078125 0  0.0390625 0.0078125 0  0.046875 0.0078125 0  0.0546875 0.0078125 0  0.0625 0.0078125 0  0.0703125 0.0078125 0  0.078125 0.0078125 0  0.0859375 0.0078125 0  0.09375 0.0078125 0  0.1015625 0.0078125 0  0.109375 0.0078125 0  0.1171875 0.0078125 0  0.125 0.0078125 0  0.1328125 0.0078125 0  0.140625 0.0078125 0  0.1484375 0.0078125 0  0.15625 0.0078125 0  0.1640625 0.0078125 0  0.171875 0.0078125 0  0.1796875 0.0078125 0  0.1875 0.0078125 0  0.1953125 0.0078125 0  0.203125 0.0078125 0  0.2109375 0.0078125 0  0.21875 0.0078125 0  0.2265625 0.0078125 0  0.234375 0.0078125 0  0.2421875 0.0078125 0  0.25 0.0078125 0  0.2578125 0.0078125 0  0.265625 0.0078125 0  0.2734375 0.0078125 0  0.28125 0.0078125 0  0.2890625 0.0078125 0  0.296875 0.0078125 0  0.3046875 0.0078125 0  0.3125 0.0078125 0  0.3203125 0.0078125 0  0.328125 0.0078125 0  0.3359375 0.0078125 0  0.34375 0.0078125 0  0.3515625 0.0078125 0  0.359375 0.0078125 0  0.3671875 0.0078125 0  0.375 0.0078125 0  0.3828125 0.0078125 0  0.390625 0.0078125 0  0.3984375 0.0078125 0  0.40625 0.0078125 0  0.4140625 0.0078125 0  0.421875 0.0078125 0  0.4296875 0.0078125 0  0.4375 0.0078125 0  0.4453125 0.0078125 0  0.453125 0.0078125 0  0.4609375 0.0078125 0  0.46875 0.0078125 0  0.4765625 0.0078125 0  0.484375 0.0078125 0  0.4921875 0.0078125 0  0.5 0.0078125 0  0.5078125 0.0078125 0  0.515625 0.0078125 0  0.5234375 0.0078125 0  0.53125 0.0078125 0  0.5390625 0.0078125 0  0.546875 0.0078125 0  0.5546875 0.0078125 0  0.5625 0.0078125 0  0.5703125 0.0078125 0  0.578125 0.0078125 0  0.5859375 0.0078125 0  0.59375 0.0078125 0  0.6015625 0.0078125 0  0.609375 0.0078125 0  0.6171875 0.0078125 0  0.625 0.0078125 0  0.6328125 0.0078125 0  0.640625 0.0078125 0  0.6484375 0.0078125 0  0.65625 0.0078125 0  0.6640625 0.0078125 0  0.671875 0.0078125 0  0.6796875 0.0078125 0  0.6875 0.0078125 0  0.6953125 0.0078125 0  0.703125 0.0078125 0  0.7109375 0.0078125 0  0.71875 0.0078125 0  0.7265625 0.0078125 0  0.734375 0.0078125 0  0.7421875 0.0078125 0  0.75 0.0078125 0  0.7578125 0.0078125 0  0.765625 0.0078125 0  0.7734375 0.0078125 0  0.78125 0.0078125 0  0.7890625 0.0078125 0  0.796875 0.0078125 0  0.8046875 0.0078125 0  0.8125 0.0078125 0  0.8203125 0.0078125 0  0.828125 0.0078125 0  0.8359375 0.0078125 0  0.84375 0.0078125 0  0.8515625 0.0078125 0  0.859375 0.0078125 0  0.8671875 0.0078125 0  0.875 0.0078125 0  0.8828125 0.0078125 0  0.890625 0.0078125 0  0.8984375 0.0078125 0  0.90625 0.0078125 0  0.9140625 0.0078125 0  0.921875 0.0078125 0  0.9296875 0.0078125 0  0.9375 0.0078125 0  0.9453125 0.0078125 0  0.953125 0.0078125 0  0.9609375 0.0078125 0  0.96875 0.0078125 0  0.9765625 0.0078125 0  0.984375 0.0078125 0  0.9921875 0.0078125 0  1 0.0078125 0  0 0.015625 0  0.0078125 0.015625 0  0.015625 0.015625 0  0.0234375 0.015625 0  0.03125 0.015625 0  0.0390625 0.015625 0  0.046875 0.015625 0  0.0546875 0.015625 0  0.0625 0.015625 0  0.0703125 0.015625 0  0.078125 0.015625 0  0.0859375 0.015625 0  0.09375 0.015625 0  0.1015625 0.015625 0  0.109375 0.015625 0  0.1171875 0.015625 0  0.125 0.015625 0  0.1328125 0.015625 0  0.140625 0.015625 0  0.1484375 0.015625 0  0.15625 0.015625 0  0.1640625 0.015625 0  0.171875 0.015625 0  0.1796875 0.015625 0  0.1875 0.015625 0  0.1953125 0.015625 0  0.203125 0.015625 0  0.2109375 0.015625 0  0.21875 0.015625 0  0.2265625 0.015625 0  0.234375 0.015625 0  0.2421875 0.015625 0  0.25 0.015625 0  0.2578125 0.015625 0  0.265625 0.015625 0  0.2734375 0.015625 0  0.28125 0.015625 0  0.2890625 0.015625 0  0.296875 0.015625 0  0.3046875 0.015625 0  0.3125 0.015625 0  0.3203125 0.015625 0  0.328125 0.015625 0  0.3359375 0.015625 0  0.34375 0.015625 0  0.3515625 0.015625 0  0.359375 0.015625 0  0.3671875 0.015625 0  0.375 0.015625 0  0.3828125 0.015625 0  0.390625 0.015625 0  0.3984375 0.015625 0  0.40625 0.015625 0  0.4140625 0.015625 0  0.421875 0.015625 0  0.4296875 0.015625 0  0.4375 0.015625 0  0.4453125 0.015625 0  0.453125 0.015625 0  0.4609375 0.015625 0  0.46875 0.015625 0  0.4765625 0.015625 0  0.484375 0.015625 0  0.4921875 0.015625 0  0.5 0.015625 0  0.5078125 0.015625 0  0.515625 0.015625 0  0.5234375 0.015625 0  0.53125 0.015625 0  0.5390625 0.015625 0  0.546875 0.015625 0  0.5546875 0.015625 0  0.5625 0.015625 0  0.5703125 0.015625 0  0.578125 0.015625 0  0.5859375 0.015625 0  0.59375 0.015625 0  0.6015625 0.015625 0  0.609375 0.015625 0  0.6171875 0.015625 0  0.625 0.015625 0  0.6328125 0.015625 0  0.640625 0.015625 0  0.6484375 0.015625 0  0.65625 0.015625 0  0.6640625 0.015625 0  0.671875 0.015625 0  0.6796875 0.015625 0  0.6875 0.015625 0  0.6953125 0.015625 0  0.703125 0.015625 0  0.7109375 0.015625 0  0.71875 0.015625 0  0.7265625 0.015625 0  0.734375 0.015625 0  0.7421875 0.015625 0  0.75 0.015625 0  0.7578125 0.015625 0  0.765625 0.015625 0  0.7734375 0.015625 0  0.78125 0.015625 0  0.7890625 0.015625 0  0.796875 0.015625 0  0.8046875 0.015625 0  0.8125 0.015625 0  0.8203125 0.015625 0  0.828125 0.015625 0  0.8359375 0.015625 0  0.84375 0.015625 0  0.8515625 0.015625 0  0.859375 0.015625 0  0.8671875 0.015625 0  0.875 0.015625 0  0.8828125 0.015625 0  0.890625 0.015625 0  0.8984375 0.015625 0  0.90625 0.015625 0  0.9140625 0.015625 0  0.921875 0.015625 0  0.9296875 0.015625 0  0.9375 0.015625 0  0.9453125 0.015625 0  0.953125 0.015625 0  0.9609375 0.015625 0  0.96875 0.015625 0  0.9765625 0.015625 0  0.984375 0.015625 0  0.9921875 0.015625 0  1 0.015625 0  0 0.0234375 0  0.0078125 0.0234375 0  0.015625 0.0234375 0  0.0234375 0.0234375 0  0.03125 0.0234375 0  0.0390625 0.0234375 0  0.046875 0.0234375 0  0.0546875 0.0234375 0  0.0625 0.0234375 0  0.0703125 0.0234375 0  0.078125 0.0234375 0  0.0859375 0.0234375 0  0.09375 0.0234375 0  0.1015625 0.0234375 0  0.109375 0.0234375 0  0.1171875 0.0234375 0  0.125 0.0234375 0  0.1328125 0.0234375 0  0.140625 0.0234375 0  0.1484375 0.0234375 0  0.15625 0.0234375 0  0.1640625 0.0234375 0  0.171875 0.0234375 0  0.1796875 0.0234375 0  0.1875 0.0234375 0  0.1953125 0.0234375 0  0.203125 0.0234375 0  0.2109375 0.0234375 0  0.21875 0.0234375 0  0.2265625 0.0234375 0  0.234375 0.0234375 0  0.2421875 0.0234375 0  0.25 0.0234375 0  0.2578125 0.0234375 0  0.265625 0.0234375 0  0.2734375 0.0234375 0  0.28125 0.0234375 0  0.2890625 0.0234375 0  0.296875 0.0234375 0  0.3046875 0.0234375 0  0.3125 0.0234375 0  0.3203125 0.0234375 0  0.328125 0.0234375 0  0.3359375 0.0234375 0  0.34375 0.0234375 0  0.3515625 0.0234375 0  0.359375 0.0234375 0  0.3671875 0.0234375 0  0.375 0.0234375 0  0.3828125 0.0234375 0  0.390625 0.0234375 0  0.3984375 0.0234375 0  0.40625 0.0234375 0  0.4140625 0.0234375 0  0.421875 0.0234375 0  0.4296875 0.0234375 0  0.4375 0.0234375 0  0.4453125 0.0234375 0  0.453125 0.0234375 0  0.4609375 0.0234375 0  0.46875 0.0234375 0  0.4765625 0.0234375 0  0.484375 0.0234375 0  0.4921875 0.0234375 0  0.5 0.0234375 0  0.5078125 0.0234375 0  0.515625 0.0234375 0  0.5234375 0.0234375 0  0.53125 0.0234375 0  0.5390625 0.0234375 0  0.546875 0.0234375 0  0.5546875 0.0234375 0  0.5625 0.0234375 0  0.5703125 0.0234375 0  0.578125 0.0234375 0  0.5859375 0.0234375 0  0.59375 0.0234375 0  0.6015625 0.0234375 0  0.609375 0.0234375 0  0.6171875 0.0234375 0  0.625 0.0234375 0  0.6328125 0.0234375 0  0.640625 0.0234375 0  0.6484375 0.0234375 0  0.65625 0.0234375 0  0.6640625 0.0234375 0  0.671875 0.0234375 0  0.6796875 0.0234375 0  0.6875 0.0234375 0  0.6953125 0.0234375 0  0.703125 0.0234375 0  0.7109375 0.0234375 0  0.71875 0.0234375 0  0.7265625 0.0234375 0  0.734375 0.0234375 0  0.7421875 0.0234375 0  0.75 0.0234375 0  0.7578125 0.0234375 0  0.765625 0.0234375 0  0.7734375 0.0234375 0  0.78125 0.0234375 0  0.7890625 0.0234375 0  0.796875 0.0234375 0  0.8046875 0.0234375 0  0.8125 0.0234375 0  0.8203125 0.0234375 0  0.828125 0.0234375 0  0.8359375 0.0234375 0  0.84375 0.0234375 0  0.8515625 0.0234375 0  0.859375 0.0234375 0  0.8671
[...]
<PointData  Vectors="u"> 
<DataArray  type="Float64"  Name="u"  NumberOfComponents="3" format="ascii">0.0000000000000000e+00 0.0000000000000000e+00 0.0000000000000000e+00  0.0000000000000000e+00 0.0000000000000000e+00 0.0000000000000000e+00  0.0000000000000000e+00 0.0000000000000000e+00 0.0000000000000000e+00  0.0000000000000000e+00 0.0000000000000000e+00 0.0000000000000000e+00  0.0000000000000000e+00 0.0000000000000000e+00 0.0000000000000000e+00  0.0000000000000000e+00 0.0000000000000000e+00 0.0000000000000000e+00  0.0000000000000000e+00 0.0000000000000000e+00 0.0000000000000000e+00  0.0000000000000000e+00 0.0000000000000000e+00 0.0000000000000000e+00  0.0000000000000000e+00 0.0000000000000000e+00 0.0000000000000000e+00  0.0000000000000000e+00 0.0000000000000000e+00 0.0000000000000000e+00  0.0000000000000000e+00 0.0000000000000000e+00 0.0000000000000000e+00  0.0000000000000000e+00 0.0000000000000000e+00 0.0000000000000000e+00  0.0000000000000000e+00 0.0000000000000000e+00 0.0000000000000000e+00  0.0000000000000000e+00 0.0000000000000000e+00 0.0000000000000000e+00  0.0000000000000000e+00 0.0000000000000000e+00 0.0000000000000000e+00  0.0000000000000000e+00 0.0000000000000000e+00 0.0000000000000000e+00  0.0000000000000000e+00 0.0000000000000000e+00 0.0000000000000000e+00  0.0000000000000000e+00 0.0000000000000000e+00 0.0000000000000000e+00  0.0000000000000000e+00 0.0000000000000000e+00 0.0000000000000000e+00  0.0000000000000000e+00 0.0000000000000000e+00 0.0000000000000000e+00  0.0000000000000000e+00 0.0000000000000000e+00 0.0000000000000000e+00  0.0000000000000000e+00 0.0000000000000000e+00 0.0000000000000000e+00  0.0000000000000000e+00 0.0000000000000000e+00 0.0000000000000000e+00  0.0000000000000000e+00 0.0000000000000000e+00 0.0000000000000000e+00  0.0000000000000000e+00 0.0000000000000000e+00 0.0000000000000000e+00  0.0000000000000000e+00 0.0000000000000000e+00 0.0000000000000000e+00  0.0000000000000000e+00 0.0000000000000000e+00 0.0000000000000000e+00  0.0000000000000000e+00 0.0000000000000000e+00 0.0000000000000000e+00  0.0000000000000000e+00 0.0000000000000000e+00 0.0000000000000000e+00  0.0000000000000000e+00 0.0000000000000000e+00 0.0000000000000000e+00  0.0000000000000000e+00 0.0000000000000000e+00 0.0000000000000000e+00  0.0000000000000000e+00 0.0000000000000000e+00 0.0000000000000000e+00  0.0000000000000000e+00 0.0000000000000000e+00 0.0000000000000000e+00  0.0000000000000000e+00 0.0000000000000000e+00 0.0000000000000000e+00  0.0000000000000000e+00 0.0000000000000000e+00 0.0000000000000000e+00  0.0000000000000000e+00 0.0000000000000000e+00 0.0000000000000000e+00  0.0000000000000000e+00 0.0000000000000000e+00 0.0000000000000000e+00  0.0000000000000000e+00 0.0000000000000000e+00 0.0000000000000000e+00  0.0000000000000000e+00 0.0000000000000000e+00 0.0000000000000000e+00  0.0000000000000000e+00 0.0000000000000000e+00 0.0000000000000000e+00  0.0000000000000000e+00 0.0000000000000000e+00 0.0000000000000000e+00  0.0000000000000000e+00 0.0000000000000000e+00 0.0000000000000000e+00  0.0000000000000000e+00 0.0000000000000000e+00 0.0000000000000000e+00  0.0000000000000000e+00 0.0000000000000000e+00 0.0000000000000000e+00  0.0000000000000000e+00 0.0000000000000000e+00 0.0000000000000000e+00  0.0000000000000000e+00 0.0000000000000000e+00 0.0000000000000000e+00  0.0000000000000000e+00 0.0000000000000000e+00 0.0000000000000000e+00  0.0000000000000000e+00 0.0000000000000000e+00 0.0000000000000000e+00  0.0000000000000000e+00 0.0000000000000000e+00 0.0000000000000000e+00  0.0000000000000000e+00 0.0000000000000000e+00 0.0000000000000000e+00  0.0000000000000000e+00 0.0000000000000000e+00 0.0000000000000000e+00  0.0000000000000000e+00 0.0000000000000000e+00 0.0000000000000000e+00  0.0000000000000000e+00 0.0000000000000000e+00 0.0000000000000000e+00  0.0000000000000000e+00 0.0000000000000000e+00 0.0000000000000000e+00  0.0000000000000000e+00 0.0000000000000000e+00 0.0000000000000000e+00  0.0000000000000000e+00 0.0000000000000000e+00 0.0000000000000000e+00  0.0000000000000000e+00 0.0000000000000000e+00 0.0000000000000000e+00  0.0000000000000000e+00 0.0000000000000000e+00 0.0000000000000000e+00  0.0000000000000000e+00 0.0000000000000000e+00 0.0000000000000000e+00  0.0000000000000000e+00 0.0000000000000000e+00 0.0000000000000000e+00  0.0000000000000000e+00 0.0000000000000000e+00 0.0000000000000000e+00  0.0000000000000000e+00 0.0000000000000000e+00 0.0000000000000000e+00  0.0000000000000000e+00 0.0000000000000000e+00 0.0000000000000000e+00  0.0000000000000000e+00 0.0000000000000000e+00 0.0000000000000000e+00  0.0000000000000000e+00 0.0000000000000000e+00 0.0000000000000000e+00  0.0000000000000000e+00 0.0000000000000000e+00 0.0000000000000000e+00  0.0000000000000000e+00 0.0000000000000000e+00 0.0000000000000000e+00  0.0000000000000000e+00 0.0000000000000000e+00 0.0000000000000000e+00  0.0000000000000000e+00 0.0000000000000000e+00 0.0000000000000000e+00  0.0000000000000000e+00 0.0000000000000000e+00 0.0000000000000000e+00  0.0000000000000000e+00 0.0000000000000000e+00 0.0000000000000000e+00  0.0000000000000000e+00 0.0000000000000000e+00 0.0000000000000000e+00  0.0000000000000000e+00 0.0000000000000000e+00 0.0000000000000000e+00  0.0000000000000000e+00 0.0000000000000000e+00 0.0000000000000000e+00  0.0000000000000000e+00 0.0000000000000000e+00 0.0000000000000000e+00  0.0000000000000000e+00 0.0000000000000000e+00 0.0000000000000000e+00  0.0000000000000000e+00 0.0000000000000000e+00 0.0000000000000000e+00  0.0000000000000000e+00 0.0000000000000000e+00 0.0000000000000000e+00  0.0000000000000000e+00 0.0000000000000000e+00 0.0000000000000000e+00  0.0000000000000000e+00 0.0000000000000000e+00 0.0000000000000000e+00  0.0000000000000000e+00 0.0000000000000000e+00 0.0000000000000000e+00  0.0000000000000000e+00 0.0000000000000000e+00 0.0000000000000000e+00  0.0000000000000000e+00 0.0000000000000000e+00 0.0000000000000000e+00  0.0000000000000000e+00 0.0000000000000000e+00 0.0000000000000000e+00  0.0000000000000000e+00 0.0000000000000000e+00 0.0000000000000000e+00  0.0000000000000000e+00 0.0000000000000000e+00 0.0000000000000000e+00  0.0000000000000000e+00 0.0000000000000000e+00 0.0000000000000000e+00  0.0000000000000000e+00 0.0000000000000000e+00 0.0000000000000000e+00  0.0000000000000000e+00 0.0000000000000000e+00 0.0000000000000000e+00  0.0000000000000000e+00 0.0000000000000000e+00 0.0000000000000000e+00  0.0000000000000000e+00 0.0000000000000000e+00 0.0000000000000000e+00  0.0000000000000000e+00 0.0000000000000000e+00 0.0000000000000000e+00  0.0000000000000000e+00 0.0000000000000000e+00 0.0000000000000000e+00  0.0000000000000000e+00 0.0000000000000000e+00 0.0000000000000000e+00  0.0000000000000000e+00 0.0000000000000000e+00 0.0000000000000000e+00  0.0000000000000000e+00 0.0000000000000000e+00 0.0000000000000000e+00  0.0000000000000000e+00 0.0000000000000000e+00 0.0000000000000000e+00  0.0000000000000000e+00 0.0000000000000000e+00 0.0000000000000000e+00  0.0000000000000000e+00 0.0000000000000000e+00 0.0000000000000000e+00  0.0000000000000000e+00 0.0000000000000000e+00 0.0000000000000000e+00  0.0000000000000000e+00 0.0000000000000000e+00 0.0000000000000000e+00  0.0000000000000000e+00 0.0000000000000000e+00 0.0000000000000000e+00  0.0000000000000000e+00 0.0000000000000000e+00 0.0000000000000000e+00  0.0000000000000000e+00 0.0000000000000000e+00 0.0000000000000000e+00  0.0000000000000000e+00 0.0000000000000000e+00 0.0000000000000000e+00  0.0000000000000000e+00 0.0000000000000000e+00 0.0000000000000000e+00  0.0000000000000000e+00 0.0000000000000000e+00 0.0000000000000000e+00  0.0000000000000000e+00 0.0000000000000000e+00 0.0000000000000000e+00  0.0000000000000000e+00 0.0000000000000000e+00 0.0000000000000000e+00  0.0000000000000000e+00 0.0000000000000000e+00 0.0000000000000000e+00  0.0000000000000000e+00 0.0000000000000000e+00 0.0000000000000000e+00  0.0000000000000000e+00 0.0000000000000000e+00 0.0000000000000000e+00  0.0000000000000000e+00 0.0000000000000000e+00 0.0000000000000000e+00  0.0000000000000000e+00 0.0000000000000000e+00 0.0000000000000000e+00  0.0000000000000000e+00 0.0000000000000000e+00 0.0000000000000000e+00  0.0000000000000000e+00 0.0000000000000000e+00 0.0000000000000000e+00  0.0000000000000000e+00 0.0000000000000000e+00 0.0000000000000000e+00  0.0000000000000000e+00 0.0000000000000000e+00 0.0000000000000000e+00  0.0000000000000000e+00 0.0000000000000000e+00 0.0000000000000000e+00  0.0000000000000000e+00 0.0000000000000000e+00 0.0000000000000000e+00  0.0000000000000000e+00 0.0000000000000000e+00 0.0000000000000000e+00  0.0000000000000000e+00 0.0000000000000000e+00 0.0000000000000000e+00  0.0000000000000000e+00 0.0000000000000000e+00 0.0000000000000000e+00  0.0000000000000000e+00 0.0000000000000000e+00 0.0000000000000000e+00  0.0000000000000000e+00 0.0000000000000000e+00 0.0000000000000000e+00  0.0000000000000000e+00 0.0000000000000000e+00 0.0000000000000000e+00  0.0000000000000000e+00 0.0000000000000000e+00 0.0000000000000000e+00  0.0000000000000000e+00 0.0000000000000000e+00 0.0000000000000000e+00  0.0000000000000000e+00 0.0000000000000000e+00 0.0000000000000000e+00  0.0000000000000000e+00 0.0000000000000000e+00 0.0000000000000000e+00  1.6712168731343905e-05 -1.6720815740356830e-05 0.0000000000000000e+00  8.7598316519500412e-05 -5.2355957942819730e-05 0.0000000000000000e+00  2.1835151032115576e-04 -8.1926875521704955e-05 0.0000000000000000e+00  3.9412228485632007e-04 -1.0191748966399912e-04 0.0000000000000000e+00  5.9838626651324963e-04 -1.1292982918048697e-04 0.0000000000000000e+00  8.1596573844764948e-04 -1.1642466988835553e-04 0.0000000000000000e+00  1.0342274274574351e-03 -1.1393094576099516e-04 0.0000000000000000e+00  1.2431174488912386e-03 -1.0681804309327475e-04 0.0000000000000000e+00  1.4349107138464244e-03 -9.6268043659739229e-05 0.0000000000000000e+00  1.6039111023500826e-03 -8.3281570750761666e-05 0.0000000000000000e+00  1.7461448430940206e-03 -6.8690479040487841e-05 0.0000000000000000e+00  1.8590661950259014e-03 -5.3170188377221043e-05 0.0000000000000000e+00  1.9412787875877600e-03 -3.7250729260996647e-05 0.0000000000000000e+00  1.9922738941334965e-03 -2.1327473118917335e-05 0.0000000000000000e+00  2.0121874448048951e-03 -5.6724406995770467e-06 0.0000000000000000e+00  2.0015782636542828e-03 9.5532367631152930e-06 0.0000000000000000e+00  1.9612304329626566e-03 2.4285482606864680e-05 0.0000000000000000e+00  1.8919826417775818e-03 3.8542149583635759e-05 0.0000000000000000e+00  1.7945868977130885e-03 5.2406926232883773e-05 0.0000000000000000e+00  1.6695981505361846e-03 6.6012771194412899e-05 0.0000000000000000e+00  1.5172952912896015e-03 7.9525483061992976e-05 0.0000000000000000e+00  1.3376327647210981e-03 9.3128058529653976e-05 0.0000000000000000e+00  1.1302207893558564e-03 1.0700646812620970e-04 0.0000000000000000e+00  8.9433104637536454e-04 1.2133738804547261e-04 0.0000000000000000e+00  6.2892379517628103e-04 1.3627827676413300e-04 0.0000000000000000e+00  3.3269179618255796e-04 1.5195999297826609e-04 0.0000000000000000e+00  4.1162275815119218e-06 1.6848194091842079e-04 0.0000000000000000e+00  -3.5847001989527597e-04 1.8590952840357651e-04 0.0000000000000000e+00  -7.5681574161563293e-04 2.0427355932053202e-04 0.0000000000000000e+00  -1.1926847813478721e-03 2.2357107680202036e-04 0.0000000000000000e+00  -1.6677916898974780e-03 2.4376713730463642e-04 0.0000000000000000e+00  -2.1837410687720669e-03 2.6479702803926757e-04 0.0000000000000000e+00  -2.7419711543682905e-03 2.8656852843068117e-04 0.0000000000000000e+00  -3.3437015620525513e-03 3.0896394001676315e-04 0.0000000000000000e+00  -3.9898847150890262e-03 3.3184174462554274e-04 0.0000000000000000e+00  -4.6811603320351513e-03 3.5503787562808658e-04 0.0000000000000000e+00  -5.4178124029971419e-03 3.7836668504974028e-04 0.0000000000000000e+00  -6.1997282913097817e-03 4.0162175164578756e-04 0.0000000000000000e+00  -7.0263598851015366e-03 4.2457670091977304e-04 0.0000000000000000e+00  -7.8966870294727414e-03 4.4698620294958923e-04 0.0000000000000000e+00  -8.8091837448877209e-03 4.6858728689902441e-04 0.0000000000000000e+00  -9.7617879491326311e-03 4.8910107222263285e-04 0.0000000000000000e+00  -1.0751875534392231e-02 5.0823497460908819e-04 0.0000000000000000e+00  -1.1776239708293008e-02 5.2568540584168612e-04 0.0000000000000000e+00  -1.2831076496402780e-02 5.4114095456438051e-04 0.0000000000000000e+00  -1.3911977238888503e-02 5.5428601049246093e-04 0.0000000000000000e+00  -1.5013928809359414e-02 5.6480477751681354e-04 0.0000000000000000e+00  -1.6131322153393364e-02 5.7238561019436142e-04 0.0000000000000000e+00  -1.7257969598601750e-02 5.7672560192045146e-04 0.0000000000000000e+00  -1.8387131235949348e-02 5.7753535044634827e-04 0.0000000000000000e+00  -1.9511550519958575e-02 5.7454382642463484e-04 0.0000000000000000e+00  -2.0623499088305190e-02 5.6750327267061169e-04 0.0000000000000000e+00  -2.1714830662787361e-02 5.5619406528777246e-04 0.0000000000000000e+00  -2.2777043766191149e-02 5.4042947221990840e-04 0.0000000000000000e+00  -2.3801352874501767e-02 5.2006024963053860e-04 0.0000000000000000e+00  -2.4778767521352395e-02 4.9497902118592855e-04 0.0000000000000000e+00  -2.5700178780417936e-02 4.6512438922570004e-04 0.0000000000000000e+00  -2.6556452469370127e-02 4.3048472935856895e-04 0.0000000000000000e+00  -2.7338528342626484e-02 3.9110162071602061e-04 0.0000000000000000e+00  -2.8037524465317522e-02 3.4707286257766476e-04 0.0000000000000000e+00  -2.8644845883052692e-02 2.9855502418411190e-04 0.0000000000000000e+00  -2.9152296616587269e-02 2.4576546834931853e-04 0.0000000000000000e+00  -2.9552193913184671e-02 1.8898378131294331e-04 0.0000000000000000e+00  -2.9837483574131466e-02 1.2855253173980565e-04 0.0000000000000000e+00  -3.0001855048623540e-02 6.4877271766384715e-05 0.0000000000000000e+00  -3.0039854838167228e-02 -1.5743163716816465e-06 0.0000000000000000e+00  -2.9946996594913698e-02 -7.0274231972776869e-05 0.0000000000000000e+00  -2.9719866126711816e-02 -1.4063703351230175e-04 0.0000000000000000e+00  -2.9356219348453134e-02 -2.1202388891901751e-04 0.0000000000000000e+00  -2.8855071053483006e-02 -2.8374789741003115e-04 0.0000000000000000e+00  -2.8216772232895929e-02 -3.5508076613275573e-04 0.0000000000000000e+00  -2.7443073558965889e-02 -4.2526090006216472e-04 0.0000000000000000e+00  -2.6537172587821976e-02 -4.9350292893585558e-04 0.0000000000000000e+00  -2.5503742242534773e-02 -5.5900865027067384e-04 0.0000000000000000e+00  -2.4348938227526574e-02 -6.2097931315857461e-04 0.0000000000000000e+00  -2.3080383213681652e-02 -6.7862910482825061e-04 0.0000000000000000e+00  -2.1707125932978428e-02 -7.3119963297189005e-04 0.0000000000000000e+00  -2.0239573740023487e-02 -7.7797512453395095e-04 0.0000000000000000e+00  -1.8689397738166833e-02 -8.1829798981133679e-04 0.0000000000000000e+00  -1.7069410225867564e-02 -8.5158433378389317e-04 0.0000000000000000e+00  -1.5393414982975213e-02 -8.7733893950995277e-04 0.0000000000000000e+00  -1.3676031766717233e-02 -8.9516920628468207e-04 0.0000000000000000e+00  -1.1932497295349202e-02 -9.0479750297226881e-04 0.0000000000000000e+00  -1.0178445927862673e-02 -9.0607139876803340e-04 0.0000000000000000e+00  -8.4296741586786829e-03 -8.9897126284809771e-04 0.0000000000000000e+00  -6.7018938901223573e-03 -8.8361478268093006e-04 0.0000000000000000e+00  -5.0104801739454278e-03 -8.6025803814453183e-04 0.0000000000000000e+00  -3.3702196784117879e-03 -8.2929288291471099e-04 0.0000000000000000e+00  -1.7950664960159365e-03 -7.9124052163796689e-04 0.0000000000000000e+00  -2.9791202292292089e-04 -7.4674132493158564e-04 0.0000000000000000e+00  1.1096245102598472e-03 -6.9654108629228415e-04 0.0000000000000000e+00  2.4173787071623465e-03 -6.4147408632092551e-04 0.0000000000000000e+00  3.6167914298295533e-03 -5.8244348043725561e-04 0.0000000000000000e+00  4.7010224941362970e-03 -5.2039965672730757e-04 0.0000000000000000e+00  5.6650243297243991e-03 -4.5631731187966373e-04 0.0000000000000000e+00  6.5055736419110301e-03 -3.9117205809780859e-04 0.0000000000000000e+00  7.2212605606195501e-03 -3.2591739747944883e-04 0.0000000000000000e+00  7.8124362411016472e-03 -2.6146288046766759e-04 0.0000000000000000e+00  8.2811213182693993e-03 -1.9865420252867098e-04 0.0000000000000000e+00  8.6308789378795898e-03 -1.3825589229900925e-04 0.0000000000000000e+00  8.8666572280178130e-03 -8.0937112220768134e-05 0.0000000000000000e+00  8.9946069805288287e-03 -2.7260939008151400e-05 0.0000000000000000e+00  9.0218809492264226e-03 2.2322671773603102e-05 0.0000000000000000e+00  8.9564215267656372e-03 6.7480191611360917e-05 0.0000000000000000e+00  8.8067436465686221e-03 1.0799419048418349e-04 0.0000000000000000e+00  8.5817196075492243e-03 1.4375957714101231e-04 0.0000000000000000e+00  8.2903721994970429e-03 1.7477667551607376e-04 0.0000000000000000e+00  7.9416820981005800e-03 2.0114141571709045e-04 0.0000000000000000e+00  7.5444150954820438e-03 2.2303287297965031e-04 0.0000000000000000e+00  7.1069744304215034e-03 2.4069829071316149e-04 0.0000000000000000e+00  6.6372833632876663e-03 2.5443558710262510e-04 0.0000000000000000e+00  6.1427032527050411e-03 2.6457319117671220e-04 0.0000000000000000e+00  5.6299927316803920e-03 2.7144691541225593e-04 0.0000000000000000e+00  5.1053140798364106e-03 2.7537348659715486e-04 0.0000000000000000e+00  4.5742933935256306e-03 2.7662036835097238e-04 0.0000000000000000e+00  4.0421414212279917e-03 2.7537166559073211e-04 0.0000000000000000e+00  3.5138415958148412e-03 2.7169026353360027e-04 0.0000000000000000e+00  2.9944103313644457e-03 2.6547702291600538e-04 0.0000000000000000e+00  2.4892311848681531e-03 2.5642903325706471e-04 0.0000000000000000e+00  2.0044575454066516e-03 2.4400113447890673e-04 0.0000000000000000e+00  1.5474646891631473e-03 2.2737929372277393e-04 0.0000000000000000e+00  1.1273053535919061e-03 2.0548441401265847e-04 0.0000000000000000e+00  7.5506148102087603e-04 1.7704779821726678e-04 0.0000000000000000e+00  4.4387904880218299e-04 1.4086814104916773e-04 0.0000000000000000e+00  2.0804153536916188e-04 9.6512904768212174e-05 0.0000000000000000e+00  6.0122606579959843e-05 4.6402959832015254e-05 0.0000000000000000e+00  1.7602959538910593e-06 1.7032468449296135e-06 0.0000000000000000e+00  0.0000000000000000e+00 0.0000000000000000e+00 0.0000000000000000e+00  0.0000000000000000e+00 0.0000000000000000e+00 0.0000000000000000e+00  5.2350950258249677e-05 -8.7599223280018741e-05 0.0000000000000000e+00  2.0285007944440296e-04 -2.0279531452654947e-04 0.0000000000000000e+00  4.4072039392520248e-04 -2.9974339919248483e-04 0.0000000000000000e+00  7.4492302513685970e-04 -3.6689361305953735e-04 0.0000000000000000e+00  1.0917418130401062e-03 -4.0438879764996240e-04 0.0000000000000000e+00  1.4580190630938254e-03 -4.1601962957067684e-04 0.0000000000000000e+00  1.8234619969906163e-03 -4.0637526727146749e-04 0.0000000000000000e+00  2.1711864635398049e-03 -3.7990689369311865e-04 0.0000000000000000e+00  2.4877414969038834e-03 -3.4063065420810015e-04 0.0000000000000000e+00  2.7628485398911787e-03 -2.9204096731188497e-04 0.0000000000000000e+00  2.9890276618549897e-03 -2.3709774587053799e-04 0.0000000000000000e+00  3.1611826475407465e-03 -1.7823808915972750e-04 0.0000000000000000e+00  3.2761762892915026e-03 -1.1739796640000699e-04 0.0000000000000000e+00  3.3324134781284927e-03 -5.6040376160912225e-05 0.0000000000000000e+00  3.3294434464140599e-03 4.8102781046029127e-06 0.0000000000000000e+00  3.2675901708104256e-03 6.4527308433433688e-05 0.0000000000000000e+00  3.1476187402988522e-03 1.2283447568555393e-04 0.0000000000000000e+00  2.9704444032809074e-03 1.7975310251460848e-04 0.0000000000000000e+00  2.7368896526754824e-03 2.3554497554205043e-04 0.0000000000000000e+00  2.4474929799718306e-03 2.9065297469212055e-04 0.0000000000000000e+00  2.1023708760788090e-03 3.4564172249620814e-04 0.0000000000000000e+00  1.7011324129308602e-03 4.0114068789311684e-04 0.0000000000000000e+00  1.2428434907758765e-03 4.5779208424086499e-04 0.0000000000000000e+00  7.2603578926934886e-04 5.1620