<?xml version="1.0"?>
<VTKFile type="UnstructuredGrid"  version="0.1"  >
<UnstructuredGrid>
<Piece  NumberOfPoints="16641" NumberOfCells="32768">
<Points>
<DataArray  type="Float32"  NumberOfComponents="3"  format="ascii">0 0 0  0.0078125 0 0  0.015625 0 0  0.0234375 0 0  0.03125 0 0  0.0390625 0 0  0.046875 0 0  0.0546875 0 0  0.0625 0 0  0.0703125 0 0  0.078125 0 0  0.0859375 0 0  0.09375 0 0  0.101562 0 0  0.109375 0 0  0.117188 0 0  0.125 0 0  0.132812 0 0  0.140625 0 0  0.148438 0 0  0.15625 0 0  0.164062 0 0  0.171875 0 0  0.179688 0 0  0.1875 0 0  0.195312 0 0  0.203125 0 0  0.210938 0 0  0.21875 0 0  0.226562 0 0  0.234375 0 0  0.242188 0 0  0.25 0 0  0.257812 0 0  0.265625 0 0  0.273438 0 0  0.28125 0 0  0.289062 0 0  0.296875 0 0  0.304688 0 0  0.3125 0 0  0.320312 0 0  0.328125 0 0  0.335938 0 0  0.34375 0 0  0.351562 0 0  0.359375 0 0  0.367188 0 0  0.375 0 0  0.382812 0 0  0.390625 0 0  0.398438 0 0  0.40625 0 0  0.414062 0 0  0.421875 0 0  0.429688 0 0  0.4375 0 0  0.445312 0 0  0.453125 0 0  0.460938 0 0  0.46875 0 0  0.476562 0 0  0.484375 0 0  0.492188 0 0  0.5 0 0  0.507812 0 0  0.515625 0 0  0.523438 0 0  0.53125 0 0  0.539062 0 0  0.546875 0 0  0.554688 0 0  0.5625 0 0  0.570312 0 0  0.578125 0 0  0.585938 0 0  0.59375 0 0  0.601562 0 0  0.609375 0 0  0.617188 0 0  0.625 0 0  0.632812 0 0  0.640625 0 0  0.648438 0 0  0.65625 0 0  0.664062 0 0  0.671875 0 0  0.679688 0 0  0.6875 0 0  0.695312 0 0  0.703125 0 0  0.710938 0 0  0.71875 0 0  0.726562 0 0  0.734375 0 0  0.742188 0 0  0.75 0 0  0.757812 0 0  0.765625 0 0  0.773438 0 0  0.78125 0 0  0.789062 0 0  0.796875 0 0  0.804688 0 0  0.8125 0 0  0.820312 0 0  0.828125 0 0  0.835938 0 0  0.84375 0 0  0.851562 0 0  0.859375 0 0  0.867188 0 0  0.875 0 0  0.882812 0 0  0.890625 0 0  0.898438 0 0  0.90625 0 0  0.914062 0 0  0.921875 0 0  0.929688 0 0  0.9375 0 0  0.945312 0 0  0.953125 0 0  0.960938 0 0  0.96875 0 0  0.976562 0 0  0.984375 0 0  0.992188 0 0  1 0 0  0 0.0078125 0  0.0078125 0.0078125 0  0.015625 0.0078125 0  0.0234375 0.0078125 0  0.03125 0.0078125 0  0.0390625 0.0078125 0  0.046875 0.0078125 0  0.0546875 0.0078125 0  0.0625 0.0078125 0  0.0703125 0.0078125 0  0.078125 0.0078125 0  0.0859375 0.0078125 0  0.09375 0.0078125 0  0.101562 0.0078125 0  0.109375 0.0078125 0  0.117188 0.0078125 0  0.125 0.0078125 0  0.132812 0.0078125 0  0.140625 0.0078125 0  0.148438 0.0078125 0  0.15625 0.0078125 0  0.164062 0.0078125 0  0.171875 0.0078125 0  0.179688 0.0078125 0  0.1875 0.0078125 0  0.195312 0.0078125 0  0.203125 0.0078125 0  0.210938 0.0078125 0  0.21875 0.0078125 0  0.226562 0.0078125 0  0.234375 0.0078125 0  0.242188 0.0078125 0  0.25 0.0078125 0  0.257812 0.0078125 0  0.265625 0.0078125 0  0.273438 0.0078125 0  0.28125 0.0078125 0  0.289062 0.0078125 0  0.296875 0.0078125 0  0.304688 0.0078125 0  0.3125 0.0078125 0  0.320312 0.0078125 0  0.328125 0.0078125 0  0.335938 0.0078125 0  0.34375 0.0078125 0  0.351562 0.0078125 0  0.359375 0.0078125 0  0.367188 0.0078125 0  0.375 0.0078125 0  0.382812 0.0078125 0  0.390625 0.0078125 0  0.398438 0.0078125 0  0.40625 0.0078125 0  0.414062 0.0078125 0  0.421875 0.0078125 0  0.429688 0.0078125 0  0.4375 0.0078125 0  0.445312 0.0078125 0  0.453125 0.0078125 0  0.460938 0.0078125 0  0.46875 0.0078125 0  0.476562 0.0078125 0  0.484375 0.0078125 0  0.492188 0.0078125 0  0.5 0.0078125 0  0.507812 0.0078125 0  0.515625 0.0078125 0  0.523438 0.0078125 0  0.53125 0.0078125 0  0.539062 0.0078125 0  0.546875 0.0078125 0  0.554688 0.0078125 0  0.5625 0.0078125 0  0.570312 0.0078125 0  0.578125 0.0078125 0  0.585938 0.0078125 0  0.59375 0.0078125 0  0.601562 0.0078125 0  0.609375 0.0078125 0  0.617188 0.0078125 0  0.625 0.0078125 0  0.632812 0.0078125 0  0.640625 0.0078125 0  0.648438 0.0078125 0  0.65625 0.0078125 0  0.664062 0.0078125 0  0.671875 0.0078125 0  0.679688 0.0078125 0  0.6875 0.0078125 0  0.695312 0.0078125 0  0.703125 0.0078125 0  0.710938 0.0078125 0  0.71875 0.0078125 0  0.726562 0.0078125 0  0.734375 0.0078125 0  0.742188 0.0078125 0  0.75 0.0078125 0  0.757812 0.0078125 0  0.765625 0.0078125 0  0.773438 0.0078125 0  0.78125 0.0078125 0  0.789062 0.0078125 0  0.796875 0.0078125 0  0.804688 0.0078125 0  0.8125 0.0078125 0  0.820312 0.0078125 0  0.828125 0.0078125 0  0.835938 0.0078125 0  0.84375 0.0078125 0  0.851562 0.0078125 0  0.859375 0.0078125 0  0.867188 0.0078125 0  0.875 0.0078125 0  0.882812 0.0078125 0  0.890625 0.0078125 0  0.898438 0.0078125 0  0.90625 0.0078125 0  0.914062 0.0078125 0  0.921875 0.0078125 0  0.929688 0.0078125 0  0.9375 0.0078125 0  0.945312 0.0078125 0  0.953125 0.0078125 0  0.960938 0.0078125 0  0.96875 0.0078125 0  0.976562 0.0078125 0  0.984375 0.0078125 0  0.992188 0.0078125 0  1 0.0078125 0  0 0.015625 0  0.0078125 0.015625 0  0.015625 0.015625 0  0.0234375 0.015625 0  0.03125 0.015625 0  0.0390625 0.015625 0  0.046875 0.015625 0  0.0546875 0.015625 0  0.0625 0.015625 0  0.0703125 0.015625 0  0.078125 0.015625 0  0.0859375 0.015625 0  0.09375 0.015625 0  0.101562 0.015625 0  0.109375 0.015625 0  0.117188 0.015625 0  0.125 0.015625 0  0.132812 0.015625 0  0.140625 0.015625 0  0.148438 0.015625 0  0.15625 0.015625 0  0.164062 0.015625 0  0.171875 0.015625 0  0.179688 0.015625 0  0.1875 0.015625 0  0.195312 0.015625 0  0.203125 0.015625 0  0.210938 0.015625 0  0.21875 0.015625 0  0.226562 0.015625 0  0.234375 0.015625 0  0.242188 0.015625 0  0.25 0.015625 0  0.257812 0.015625 0  0.265625 0.015625 0  0.273438 0.015625 0  0.28125 0.015625 0  0.289062 0.015625 0  0.296875 0.015625 0  0.304688 0.015625 0  0.3125 0.015625 0  0.320312 0.015625 0  0.328125 0.015625 0  0.335938 0.015625 0  0.34375 0.015625 0  0.351562 0.015625 0  0.359375 0.015625 0  0.367188 0.015625 0  0.375 0.015625 0  0.382812 0.015625 0  0.390625 0.015625 0  0.398438 0.015625 0  0.40625 0.015625 0  0.414062 0.015625 0  0.421875 0.015625 0  0.429688 0.015625 0  0.4375 0.015625 0  0.445312 0.015625 0  0.453125 0.015625 0  0.460938 0.015625 0  0.46875 0.015625 0  0.476562 0.015625 0  0.484375 0.015625 0  0.492188 0.015625 0  0.5 0.015625 0  0.507812 0.015625 0  0.515625 0.015625 0  0.523438 0.015625 0  0.53125 0.015625 0  0.539062 0.015625 0  0.546875 0.015625 0  0.554688 0.015625 0  0.5625 0.015625 0  0.570312 0.015625 0  0.578125 0.015625 0  0.585938 0.015625 0  0.59375 0.015625 0  0.601562 0.015625 0  0.609375 0.015625 0  0.617188 0.015625 0  0.625 0.015625 0  0.632812 0.015625 0  0.640625 0.015625 0  0.648438 0.015625 0  0.65625 0.015625 0  0.664062 0.015625 0  0.671875 0.015625 0  0.679688 0.015625 0  0.6875 0.015625 0  0.695312 0.015625 0  0.703125 0.015625 0  0.710938 0.015625 0  0.71875 0.015625 0  0.726562 0.015625 0  0.734375 0.015625 0  0.742188 0.015625 0  0.75 0.015625 0  0.757812 0.015625 0  0.765625 0.015625 0  0.773438 0.015625 0  0.78125 0.015625 0  0.789062 0.015625 0  0.796875 0.015625 0  0.804688 0.015625 0  0.8125 0.015625 0  0.820312 0.015625 0  0.828125 0.015625 0  0.835938 0.015625 0  0.84375 0.015625 0  0.851562 0.015625 0  0.859375 0.015625 0  0.867188 0.015625 0  0.875 0.015625 0  0.882812 0.015625 0  0.890625 0.015625 0  0.898438 0.015625 0  0.90625 0.015625 0  0.914062 0.015625 0  0.921875 0.015625 0  0.929688 0.015625 0  0.9375 0.015625 0  0.945312 0.015625 0  0.953125 0.015625 0  0.960938 0.015625 0  0.96875 0.015625 0  0.976562 0.015625 0  0.984375 0.015625 0  0.992188 0.015625 0  1 0.015625 0  0 0.0234375 0  0.0078125 0.0234375 0  0.015625 0.0234375 0  0.0234375 0.0234375 0  0.03125 0.0234375 0  0.0390625 0.0234375 0  0.046875 0.0234375 0  0.0546875 0.0234375 0  0.0625 0.0234375 0  0.0703125 0.0234375 0  0.078125 0.0234375 0  0.0859375 0.0234375 0  0.09375 0.0234375 0  0.101562 0.0234375 0  0.109375 0.0234375 0  0.117188 0.0234375 0  0.125 0.0234375 0  0.132812 0.0234375 0  0.140625 0.0234375 0  0.148438 0.0234375 0  0.15625 0.0234375 0  0.164062 0.0234375 0  0.171875 0.0234375 0  0.179688 0.0234375 0  0.1875 0.0234375 0  0.195312 0.0234375 0  0.203125 0.0234375 0  0.210938 0.0234375 0  0.21875 0.0234375 0  0.226562 0.0234375 0  0.234375 0.0234375 0  0.242188 0.0234375 0  0.25 0.0234375 0  0.257812 0.0234375 0  0.265625 0.0234375 0  0.273438 0.0234375 0  0.28125 0.0234375 0  0.289062 0.0234375 0  0.296875 0.0234375 0  0.304688 0.0234375 0  0.3125 0.0234375 0  0.320312 0.0234375 0  0.328125 0.0234375 0  0.335938 0.0234375 0  0.34375 0.0234375 0  0.351562 0.0234375 0  0.359375 0.0234375 0  0.367188 0.0234375 0  0.375 0.0234375 0  0.382812 0.0234375 0  0.390625 0.0234375 0  0.398438 0.0234375 0  0.40625 0.0234375 0  0.414062 0.0234375 0  0.421875 0.0234375 0  0.429688 0.0234375 0  0.4375 0.0234375 0  0.445312 0.0234375 0  0.453125 0.0234375 0  0.460938 0.0234375 0  0.46875 0.0234375 0  0.476562 0.0234375 0  0.484375 0.0234375 0  0.492188 0.0234375 0  0.5 0.0234375 0  0.507812 0.0234375 0  0.515625 0.0234375 0  0.523438 0.0234375 0  0.53125 0.0234375 0  0.539062 0.0234375 0  0.546875 0.0234375 0  0.554688 0.0234375 0  0.5625 0.0234375 0  0.570312 0.0234375 0  0.578125 0.0234375 0  0.585938 0.0234375 0  0.59375 0.0234375 0  0.601562 0.0234375 0  0.609375 0.0234375 0  0.617188 0.0234375 0  0.625 0.0234375 0  0.632812 0.0234375 0  0.640625 0.0234375 0  0.648438 0.0234375 0  0.65625 0.0234375 0  0.664062 0.0234375 0  0.671875 0.0234375 0  0.679688 0.0234375 0  0.6875 0.0234375 0  0.695312 0.0234375 0  0.703125 0.0234375 0  0.710938 0.0234375 0  0.71875 0.0234375 0  0.726562 0.0234375 0  0.734375 0.0234375 0  0.742188 0.0234375 0  0.75 0.0234375 0  0.757812 0.0234375 0  0.765625 0.0234375 0  0.773438 0.0234375 0  0.78125 0.0234375 0  0.789062 0.0234375 0  0.796875 0.0234375 0  0.804688 0.0234375 0  0.8125 0.0234375 0  0.820312 0.0234375 0  0.828125 0.0234375 0  0.835938 0.0234375 0  0.84375 0.0234375 0  0.851562 0.0234375 0  0.859375 0.0234375 0  0.867188 0.0234375 0  0.875 0.0234375 0  0.882812 0.0234375 0  0.890625 0.0234375 0  0.898438 0.0234375 0  0.90625 0.0234375 0  0.914062 0.0234375 0  0.921875 0.0234375 0  0.929688 0.0234375 0  0.9375 0.0234375 0  0.945312 0.0234
[...]
<PointData  Vectors="u"> 
<DataArray  type="Float32"  Name="u"  NumberOfComponents="3" format="ascii">2.971746e-12 1.168102e-12 0.000000e+00  -1.219197e-12 1.662990e-12 0.000000e+00  2.747742e-12 -6.000885e-12 0.000000e+00  5.320776e-12 -1.365669e-11 0.000000e+00  2.144449e-11 -2.578248e-11 0.000000e+00  5.233602e-11 -3.925800e-11 0.000000e+00  9.952301e-11 -5.253125e-11 0.000000e+00  1.621664e-10 -6.456063e-11 0.000000e+00  2.383851e-10 -7.471057e-11 0.000000e+00  3.257928e-10 -8.267658e-11 0.000000e+00  4.217870e-10 -8.835411e-11 0.000000e+00  5.236985e-10 -9.175435e-11 0.000000e+00  6.290373e-10 -9.296992e-11 0.000000e+00  7.350895e-10 -9.210714e-11 0.000000e+00  8.397476e-10 -8.935125e-11 0.000000e+00  9.408281e-10 -8.487352e-11 0.000000e+00  1.036302e-09 -7.885801e-11 0.000000e+00  1.124606e-09 -7.151658e-11 0.000000e+00  1.204394e-09 -6.305899e-11 0.000000e+00  1.274267e-09 -5.367917e-11 0.000000e+00  1.333107e-09 -4.357692e-11 0.000000e+00  1.380360e-09 -3.296012e-11 0.000000e+00  1.415604e-09 -2.201938e-11 0.000000e+00  1.438271e-09 -1.093047e-11 0.000000e+00  1.448139e-09 1.275546e-13 0.000000e+00  1.445549e-09 1.098624e-11 0.000000e+00  1.430844e-09 2.150394e-11 0.000000e+00  1.404166e-09 3.154613e-11 0.000000e+00  1.366041e-09 4.097616e-11 0.000000e+00  1.317480e-09 4.968353e-11 0.000000e+00  1.259338e-09 5.758894e-11 0.000000e+00  1.192259e-09 6.461108e-11 0.000000e+00  1.117297e-09 7.066737e-11 0.000000e+00  1.035846e-09 7.571149e-11 0.000000e+00  9.489875e-10 7.972753e-11 0.000000e+00  8.576231e-10 8.268988e-11 0.000000e+00  7.630790e-10 8.457299e-11 0.000000e+00  6.668378e-10 8.539075e-11 0.000000e+00  5.699367e-10 8.518200e-11 0.000000e+00  4.732984e-10 8.397151e-11 0.000000e+00  3.782629e-10 8.178602e-11 0.000000e+00  2.861428e-10 7.868800e-11 0.000000e+00  1.977164e-10 7.475577e-11 0.000000e+00  1.137234e-10 7.005316e-11 0.000000e+00  3.529360e-11 6.464848e-11 0.000000e+00  -3.662443e-11 5.863610e-11 0.000000e+00  -1.016487e-10 5.211512e-11 0.000000e+00  -1.593678e-10 4.517334e-11 0.000000e+00  -2.090292e-10 3.790575e-11 0.000000e+00  -2.501607e-10 3.041978e-11 0.000000e+00  -2.828274e-10 2.281609e-11 0.000000e+00  -3.070201e-10 1.518981e-11 0.000000e+00  -3.224582e-10 7.645614e-12 0.000000e+00  -3.291715e-10 2.855212e-13 0.000000e+00  -3.276398e-10 -6.805466e-12 0.000000e+00  -3.182559e-10 -1.354103e-11 0.000000e+00  -3.012265e-10 -1.982391e-11 0.000000e+00  -2.770289e-10 -2.557339e-11 0.000000e+00  -2.464557e-10 -3.073345e-11 0.000000e+00  -2.102323e-10 -3.524051e-11 0.000000e+00  -1.689924e-10 -3.901987e-11 0.000000e+00  -1.235409e-10 -4.202392e-11 0.000000e+00  -7.483211e-11 -4.423377e-11 0.000000e+00  -2.379910e-11 -4.561880e-11 0.000000e+00  2.862242e-11 -4.613851e-11 0.000000e+00  8.146381e-11 -4.578488e-11 0.000000e+00  1.337846e-10 -4.457860e-11 0.000000e+00  1.846058e-10 -4.252744e-11 0.000000e+00  2.328609e-10 -3.963188e-11 0.000000e+00  2.776004e-10 -3.592415e-11 0.000000e+00  3.180706e-10 -3.146119e-11 0.000000e+00  3.534232e-10 -2.628928e-11 0.000000e+00  3.826534e-10 -2.045075e-11 0.000000e+00  4.050062e-10 -1.401294e-11 0.000000e+00  4.200612e-10 -7.060590e-12 0.000000e+00  4.272664e-10 3.270837e-13 0.000000e+00  4.258655e-10 8.071187e-12 0.000000e+00  4.154400e-10 1.607970e-11 0.000000e+00  3.960013e-10 2.425279e-11 0.000000e+00  3.674235e-10 3.248907e-11 0.000000e+00  3.293514e-10 4.068441e-11 0.000000e+00  2.817897e-10 4.873675e-11 0.000000e+00  2.252160e-10 5.654673e-11 0.000000e+00  1.600029e-10 6.400586e-11 0.000000e+00  8.628692e-11 7.100117e-11 0.000000e+00  4.511878e-12 7.743796e-11 0.000000e+00  -8.441747e-11 8.323399e-11 0.000000e+00  -1.796325e-10 8.829158e-11 0.000000e+00  -2.804962e-10 9.250879e-11 0.000000e+00  -3.861899e-10 9.581622e-11 0.000000e+00  -4.954946e-10 9.816473e-11 0.000000e+00  -6.071329e-10 9.948615e-11 0.000000e+00  -7.200521e-10 9.971038e-11 0.000000e+00  -8.332018e-10 9.880975e-11 0.000000e+00  -9.452277e-10 9.678130e-11 0.000000e+00  -1.054615e-09 9.360339e-11 0.000000e+00  -1.160073e-09 8.925660e-11 0.000000e+00  -1.260529e-09 8.376732e-11 0.000000e+00  -1.354724e-09 7.718708e-11 0.000000e+00  -1.441146e-09 6.955338e-11 0.000000e+00  -1.518523e-09 6.091104e-11 0.000000e+00  -1.586016e-09 5.134647e-11 0.000000e+00  -1.642711e-09 4.096752e-11 0.000000e+00  -1.687390e-09 2.987641e-11 0.000000e+00  -1.719106e-09 1.818730e-11 0.000000e+00  -1.737512e-09 6.044215e-12 0.000000e+00  -1.742294e-09 -6.394439e-12 0.000000e+00  -1.732823e-09 -1.896546e-11 0.000000e+00  -1.708784e-09 -3.149138e-11 0.000000e+00  -1.670563e-09 -4.378262e-11 0.000000e+00  -1.618648e-09 -5.564420e-11 0.000000e+00  -1.553264e-09 -6.686678e-11 0.000000e+00  -1.474985e-09 -7.722907e-11 0.000000e+00  -1.385094e-09 -8.651872e-11 0.000000e+00  -1.285010e-09 -9.452766e-11 0.000000e+00  -1.175986e-09 -1.010293e-10 0.000000e+00  -1.059628e-09 -1.057956e-10 0.000000e+00  -9.381529e-10 -1.086305e-10 0.000000e+00  -8.139204e-10 -1.093551e-10 0.000000e+00  -6.892183e-10 -1.077835e-10 0.000000e+00  -5.666176e-10 -1.037596e-10 0.000000e+00  -4.490927e-10 -9.719869e-11 0.000000e+00  -3.396979e-10 -8.809026e-11 0.000000e+00  -2.414003e-10 -7.647992e-11 0.000000e+00  -1.572081e-10 -6.252064e-11 0.000000e+00  -9.026242e-11 -4.682844e-11 0.000000e+00  -4.320696e-11 -3.043139e-11 0.000000e+00  -1.795703e-11 -1.802258e-11 0.000000e+00  -1.335189e-11 -1.796153e-11 0.000000e+00  -4.699479e-12 1.965662e-12 0.000000e+00  5.563838e-08 -5.544670e-08 0.000000e+00  5.353212e-08 2.376263e-08 0.000000e+00  -1.518806e-07 1.526113e-07 0.000000e+00  -6.081017e-07 2.895220e-07 0.000000e+00  -1.314144e-06 4.172838e-07 0.000000e+00  -2.246733e-06 5.281733e-07 0.000000e+00  -3.371706e-06 6.189791e-07 0.000000e+00  -4.650410e-06 6.886848e-07 0.000000e+00  -6.042934e-06 7.374173e-07 0.000000e+00  -7.509927e-06 7.659501e-07 0.000000e+00  -9.013682e-06 7.754442e-07 0.000000e+00  -1.051882e-05 7.672972e-07 0.000000e+00  -1.199651e-05 7.433708e-07 0.000000e+00  -1.340571e-05 7.044362e-07 0.000000e+00  -1.472657e-05 6.528160e-07 0.000000e+00  -1.594699e-05 5.907813e-07 0.000000e+00  -1.703843e-05 5.195240e-07 0.000000e+00  -1.797177e-05 4.403217e-07 0.000000e+00  -1.874501e-05 3.553894e-07 0.000000e+00  -1.936293e-05 2.667850e-07 0.000000e+00  -1.980618e-05 1.756578e-07 0.000000e+00  -2.005539e-05 8.319632e-08 0.000000e+00  -2.012444e-05 -8.779403e-09 0.000000e+00  -2.003249e-05 -9.866022e-08 0.000000e+00  -1.976828e-05 -1.855271e-07 0.000000e+00  -1.932082e-05 -2.684564e-07 0.000000e+00  -1.871619e-05 -3.461834e-07 0.000000e+00  -1.798385e-05 -4.176766e-07 0.000000e+00  -1.711840e-05 -4.823564e-07 0.000000e+00  -1.611479e-05 -5.396573e-07 0.000000e+00  -1.500664e-05 -5.889339e-07 0.000000e+00  -1.382904e-05 -6.297718e-07 0.000000e+00  -1.257965e-05 -6.619633e-07 0.000000e+00  -1.125644e-05 -6.853186e-07 0.000000e+00  -9.895759e-06 -6.997934e-07 0.000000e+00  -8.533613e-06 -7.055517e-07 0.000000e+00  -7.167905e-06 -7.027245e-07 0.000000e+00  -5.796843e-06 -6.914503e-07 0.000000e+00  -4.455108e-06 -6.722018e-07 0.000000e+00  -3.175436e-06 -6.456237e-07 0.000000e+00  -1.953648e-06 -6.121001e-07 0.000000e+00  -7.859622e-07 -5.720035e-07 0.000000e+00  2.981971e-07 -5.261941e-07 0.000000e+00  1.272592e-06 -4.756587e-07 0.000000e+00  2.145009e-06 -4.209173e-07 0.000000e+00  2.922598e-06 -3.624538e-07 0.000000e+00  3.583645e-06 -3.013615e-07 0.000000e+00  4.110476e-06 -2.388116e-07 0.000000e+00  4.515032e-06 -1.753290e-07 0.000000e+00  4.808202e-06 -1.113784e-07 0.000000e+00  4.977199e-06 -4.812640e-08 0.000000e+00  5.013732e-06 1.322930e-08 0.000000e+00  4.933424e-06 7.228507e-08 0.000000e+00  4.750281e-06 1.287173e-07 0.000000e+00  4.460445e-06 1.814333e-07 0.000000e+00  4.064639e-06 2.293512e-07 0.000000e+00  3.580786e-06 2.722942e-07 0.000000e+00  3.024508e-06 3.101783e-07 0.000000e+00  2.399823e-06 3.421059e-07 0.000000e+00  1.715096e-06 3.672237e-07 0.000000e+00  9.884511e-07 3.856552e-07 0.000000e+00  2.349914e-07 3.976205e-07 0.000000e+00  -5.352571e-07 4.025009e-07 0.000000e+00  -1.308403e-06 3.997460e-07 0.000000e+00  -2.068630e-06 3.898127e-07 0.000000e+00  -2.803838e-06 3.732469e-07 0.000000e+00  -3.500354e-06 3.497503e-07 0.000000e+00  -4.141278e-06 3.191047e-07 0.000000e+00  -4.715704e-06 2.820887e-07 0.000000e+00  -5.217005e-06 2.395502e-07 0.000000e+00  -5.630366e-06 1.915059e-07 0.000000e+00  -5.938453e-06 1.380539e-07 0.000000e+00  -6.137591e-06 8.023631e-08 0.000000e+00  -6.228731e-06 1.913391e-08 0.000000e+00  -6.198209e-06 -4.497121e-08 0.000000e+00  -6.030524e-06 -1.117250e-07 0.000000e+00  -5.730926e-06 -1.799220e-07 0.000000e+00  -5.309350e-06 -2.483587e-07 0.000000e+00  -4.755018e-06 -3.165770e-07 0.000000e+00  -4.055914e-06 -3.840641e-07 0.000000e+00  -3.226977e-06 -4.495860e-07 0.000000e+00  -2.287528e-06 -5.119596e-07 0.000000e+00  -1.230598e-06 -5.706689e-07 0.000000e+00  -4.842668e-08 -6.251660e-07 0.000000e+00  1.234748e-06 -6.743470e-07 0.000000e+00  2.591017e-06 -7.172100e-07 0.000000e+00  4.023614e-06 -7.533160e-07 0.000000e+00  5.536294e-06 -7.822172e-07 0.000000e+00  7.097195e-06 -8.031041e-07 0.000000e+00  8.671895e-06 -8.153201e-07 0.000000e+00  1.026102e-05 -8.186350e-07 0.000000e+00  1.186561e-05 -8.128302e-07 0.000000e+00  1.344912e-05 -7.975426e-07 0.000000e+00  1.497389e-05 -7.726058e-07 0.000000e+00  1.644002e-05 -7.381096e-07 0.000000e+00  1.784808e-05 -6.941660e-07 0.000000e+00  1.916079e-05 -6.409765e-07 0.000000e+00  2.034156e-05 -5.789709e-07 0.000000e+00  2.139277e-05 -5.086266e-07 0.000000e+00  2.231732e-05 -4.304426e-07 0.000000e+00  2.308193e-05 -3.452479e-07 0.000000e+00  2.365595e-05 -2.541145e-07 0.000000e+00  2.404712e-05 -1.579164e-07 0.000000e+00  2.426370e-05 -5.753210e-08 0.000000e+00  2.428136e-05 4.558948e-08 0.000000e+00  2.408032e-05 1.497639e-07 0.000000e+00  2.367651e-05 2.537833e-07 0.000000e+00  2.308631e-05 3.564679e-07 0.000000e+00  2.229882e-05 4.558383e-07 0.000000e+00  2.130948e-05 5.497124e-07 0.000000e+00  2.014452e-05 6.366849e-07 0.000000e+00  1.883015e-05 7.154232e-07 0.000000e+00  1.737242e-05 7.835925e-07 0.000000e+00  1.578499e-05 8.387222e-07 0.000000e+00  1.410502e-05 8.794207e-07 0.000000e+00  1.236890e-05 9.044198e-07 0.000000e+00  1.060115e-05 9.113239e-07 0.000000e+00  8.834362e-06 8.977531e-07 0.000000e+00  7.114861e-06 8.627164e-07 0.000000e+00  5.486875e-06 8.054780e-07 0.000000e+00  3.990816e-06 7.244331e-07 0.000000e+00  2.672525e-06 6.187391e-07 0.000000e+00  1.577775e-06 4.899858e-07 0.000000e+00  7.438737e-07 3.419454e-07 0.000000e+00  1.994244e-07 1.826139e-07 0.000000e+00  -5.068774e-08 3.235670e-08 0.000000e+00  -6.049303e-08 -6.063214e-08 0.000000e+00  -1.370061e-11 -1.215442e-11 0.000000e+00  6.643054e-13 -2.657886e-12 0.000000e+00  -2.222714e-08 -5.425906e-08 0.000000e+00  -2.473781e-07 2.500010e-07 0.000000e+00  -8.289565e-07 6.994313e-07 0.000000e+00  -1.824671e-06 1.180954e-06 0.000000e+00  -3.236421e-06 1.636431e-06 0.000000e+00  -5.031111e-06 2.036676e-06 0.000000e+00  -7.155892e-06 2.367756e-06 0.000000e+00  -9.547725e-06 2.623974e-06 0.000000e+00  -1.213920e-05 2.804329e-06 0.000000e+00  -1.486221e-05 2.910628e-06 0.000000e+00  -1.765036e-05 2.946435e-06 0.000000e+00  -2.044053e-05 2.916455e-06 0.000000e+00  -2.318152e-05 2.827260e-06 0.000000e+00  -2.579656e-05 2.681454e-06 0.000000e+00  -2.825063e-05 2.487630e-06 0.000000e+00  -3.052281e-05 2.254226e-06 0.000000e+00  -3.255908e-05 1.985603e-06 0.000000e+00  -3.430394e-05 1.686521e-06 0.000000e+00  -3.575463e-05 1.365374e-06 0.000000e+00  -3.692107e-05 1.029934e-06 0.000000e+00  -3.776559e-05 6.845002e-07 0.000000e+00  -3.825027e-05 3.335887e-07 0.000000e+00  -3.840178e-05 -1.583455e-08 0.000000e+00  -3.825668e-05 -3.576518e-07 0.000000e+00  -3.779209e-05 -6.883949e-07 0.000000e+00  -3.698554e-05 -1.004514e-06 0.000000e+00  -3.588648e-05 -1.301131e-06 0.000000e+00  -3.455080e-05 -1.574313e-06 0.000000e+00  -3.296649e-05 -1.821858e-06 0.000000e+00  -3.112214e-05 -2.041560e-06 0.000000e+00  -2.908146e-05 -2.230902e-06 0.000000e+00  -2.691098e-05 -2.388296e-06 0.000000e+00  -2.460445e-05 -2.512948e-06 0.000000e+00  -2.215623e-05 -2.604074e-06 0.000000e+00  -1.963534e-05 -2.661459e-06 0.000000e+00  -1.711012e-05 -2.685729e-06 0.000000e+00  -1.457493e-05 -2.677369e-06 0.000000e+00  -1.202480e-05 -2.636851e-06 0.000000e+00  -9.525744e-06 -2.565945e-06 0.000000e+00  -7.140075e-06 -2.467121e-06 0.000000e+00  -4.858479e-06 -2.341827e-06 0.000000e+00  -2.672530e-06 -2.191428e-06 0.000000e+00  -6.384676e-07 -2.019192e-06 0.000000e+00  1.193520e-06 -1.828906e-06 0.000000e+00  2.839251e-06 -1.622530e-06 0.000000e+00  4.313160e-06 -1.401860e-06 0.000000e+00  5.573428e-06 -1.171073e-06 0.000000e+00  6.585945e-06 -9.346678e-07 0.000000e+00  7.374028e-06 -6.946175e-07 0.000000e+00  7.958806e-06 -4.526498e-07 0.000000e+00  8.315232e-06 -2.132386e-07 0.000000e+00  8.426869e-06 1.901131e-08 0.000000e+00  8.323642e-06 2.425953e-07 0.000000e+00  8.032199e-06 4.563200e-07 0.000000e+00  7.544340e-06 6.559808e-07 0.000000e+00  6.860664e-06 8.374133e-07 0.000000e+00  6.015109e-06 9.999850e-07 0.000000e+00  5.037037e-06 1.143414e-06 0.000000e+00  3.933175e-06 1.264231e-06 0.000000e+00  2.718628e-06 1.359146e-06 0.000000e+00  1.427422e-06 1.428680e-06 0.000000e+00  8.764174e-08 1.473706e-06 0.000000e+00  -1.282520e-06 1.491817e-06 0.000000e+00  -2.657371e-06 1.480880e-06 0.000000e+00  -4.007501e-06 1.442695e-06 0.000000e+00  -5.310730e-06 1.379378e-06 0.000000e+00  -6.541790e-06 1.289735e-06 0.000000e+00  -7.669102e-06 1.172912e-06 0.000000e+00  -8.672718e-06 1.031938e-06 0.000000e+00  -9.540967e-06 8.700746e-07 0.000000e+00  -1.024617e-05 6.873309e-07 0.000000e+00  -1.075567e-05 4.840616e-07 0.000000e+00  -1.106329e-05 2.643041e-07 0.000000e+00  -1.117178e-05 3.220083e-08 0.000000e+00  -1.105531e-05 -2.112303e-07 0.000000e+00  -1.068437e-05 -4.646526e-07 0.000000e+00  -1.006972e-05 -7.234090e-07 0.000000e+00  -9.231055e-06 -9.829009e-07 0.000000e+00  -8.147668e-06 -1.241440e-06 0.000000e+00  -6.796284e-06 -1.497082e-06 0.000000e+00  -5.205919e-06 -1.745069e-06 0.000000e+00  -3.413953e-06 -1.980894e-06 0.000000e+00  -1.406486e-06 -2.202652e-06 0.000000e+00  8.320737e-07 -2.408261e-06 0.000000e+00  3.255241e-06 -2.593473e-06 0.000000e+00  5.809544e-06 -2.754489e-06 0.000000e+00  8.502204e-06 -2.889697e-06 0.000000e+00  1.134160e-05 -2.997399e-06 0.000000e+00  1.426697e-05 -3.074486e-06 0.000000e+00  1.721272e-05 -3.118489e-06 0.000000e+00  2.018149e-05 -3.128595e-06 0.000000e+00  2.317684e-05 -3.103979e-06 0.000000e+00  2.612930e-05 -3.043248e-06 0.000000e+00  2.896736e-05 -2.945822e-06 0.000000e+00  3.169294e-05 -2.812099e-06 0.000000e+00  3.430889e-05 -2.642514e-06 0.000000e+00  3.674451e-05 -2.437843e-06 0.000000e+00  3.893048e-05 -2.199784e-06 0.000000e+00  4.087312e-05 -1.930207e-06 0.000000e+00  4.257979e-05 -1.631012e-06 0.000000e+00  4.398742e-05 -1.305379e-06 0.000000e+00  4.503796e-05 -9.574523e-07 0.000000e+00  4.574782e-05 -5.905910e-07 0.000000e+00  4.613441e-05 -2.081296e-07 0.000000e+00  4.615145e-05 1.843915e-07 0.000000e+00  4.576132e-05 5.805131e-07 0.000000e+00  4.499569e-05 9.756424e-07 0.000000e+00  4.388688e-05 1.365325e-06 0.000000e+00  4.241371e-05 1.742024e-06 0.000000e+00  4.056692e-05 2.097441e-06 0.000000e+00  3.839696e-05 2.426307e-06 0.000000e+00  3.595406e-05 2.723648e-06 0.000000e+00  3.324828e-05 2.980662e-06 0.000000e+00  3.030378e-05 3.188100e-06 0.000000e+00  2.719041e-05 3.340917e-06 0.000000e+00  2.397612e-05 3.434573e-06 0.000000e+00  2.070407e-05 3.460316e-06 0.000000e+00  1.743175e-05 3.409670e-06 0.000000e+00  1.424347e-05 3.279638e-06 0.000000e+00  1.121846e-05 3.068356e-06 0.000000e+00  8.425053e-06 2.771050e-06 0.000000e+00  5.939532e-06 2.386396e-06 0.000000e+00  3.838012e-06 1.922640e-06 0.000000e+00  2.178666e-06 1.396088e-06 0.000000e+00  1.000754e-06 8.369176e-07 0.000000e+00  3.084183e-07 3.111834e-07 0.000000e+00  3.184169e-08 -5.047125e-08 0.000000e+00  -1.350101e-11 -1.609700e-11 0.000000e+00  4.190462e-12 -3.976777e-12 0.000000e+00  -1.496835e-07 1.480860e-07 0.000000e+00  -6.949177e-07 8.313200e-07 0.000000e+00  -1.742673e-06 1.745876e-06 0.000000e+00  -3.333265e-06 2.714183e-06 0.000000e+00  -5.459614e-06 3.633957e-06 0.000000e+00  -8.078826e-06 4.448008e-06 0.000000e+00  -1.112497e-05 5.125923e-06 0.000000e+00  -1.451828e-05 5.653400e-06 0.000000e+00  -1.817197e-05 6.026072e-06 0.000000e+00  -2.199697e-05 6.245886e-06 0.000000e+00  -2.590524e-05 6.318916e-06 0.000000e+00  -2.981222e-05 6.254015e-06 0.000000e+00  -3.364996e-05 6.064330e-06 0.000000e+00  -3.731055e-05 5.754667e-06 0.000000e+00  -4.074808e-05 5.342899e-06 0.000000e+00  -4.393594e-05 4.846723e-06 0.000000e+00  -4.679741e-05 4.275118e-06 0.000000e+00  -4.925325e-05 3.637986e-06 0.000000e+00  -5.130135e-05 2.953186e-06 0.000000e+00  -5.295731e-05 2.237296e-06 0.000000e+00  -5.416623e-05 1.499385e-06 0.000000e+00  -5.487265e-05 7.490303e-07 0.000000e+00  -5.511526e-05 1.187974e-09 0.000000e+00  -5.494673e-05 -7.309986e-07 0.000000e+00  -5.433244e-05 -1.440136e-06 0.000000e+00  -5.323821e-05 -2.118620e-06 0.000000e+00  -5.173468e-05 -2.755919e-06 0.000000e+00  -4.990165e-05 -3.343535e-06 0.000000e+00  -4.771959e-05 -3.876736e-06 0.000000e+00  -4.516979e-05 -4.350750e-06 0.000000e+00  -4.234306e-05 -4.760094e-06 0.000000e+00  -3.933422e-05 -5.101316e-06 0.000000e+00  -3.613189e-05 -5.372665e-06 0.000000e+00  -3.272562e-05 -5.572392e-06 0.000000e+00  -2.921383e-05 -5.699972e-06 0.000000e+00  -2.569402e-05 -5.756728e-06 0.000000e+00  -2.215587e-05 -5.743640e-06 0.000000e+00  -1.859013e-05 -5.661628e-06 0.000000e+00  -1.509114e-05 -5.514472e-06 0.000000e+00  -1.174803e-05 -5.307481e-06 0.000000e+00  -8.545576e-06 -5.043685e-06 0.000000e+00  -5.470024e-06 -4.725923e-06 0.000000e+00  -2.602091e-06 -4.361223e-06 0.000000e+00  -1.385094e-08 -3.957753e-06 0.000000e+00  2.318709e-06 -3.519639e-06 0.000000e+00  4.417393e-06 -3.050640e-06 0.000000e+00  6.221762e-06 -2.559768e-06 0.000000e+00  7.682415e-06 -2.056748e-06 0.000000e+00  8.833528e-06 -1.545730e-06 0.000000e+00  9.705884e-06 -1.030325e-06 0.000000e+00  1.026272e-05 -5.202064e-07 0.000000e+00  1.047965e-05 -2.534919e-08 0.000000e+00  1.039972e-05 4.511085e-07 0.000000e+00  1.006104e-05 9.067084e-07 0.000000e+00  9.450716e-06 1.332334e-06 0.000000e+00  8.568539e-06 1.718944e-06 0.000000e+00  7.462790e-06 2.065282e-06 0.000000e+00  6.174955e-06 2.370851e-06 0.000000e+00  4.713374e-06 2.628102e-06 0.000000e+00  3.098522e-06 2.829865e-06 0.000000e+00  1.378391e-06 2.977368e-06 0.000000e+00  -4.077652e-07 3.072603e-06 0.000000e+00  -2.235170e-06 3.110290e-06 0.000000e+00  -4.068132e-06 3.085752e-06 0.000000e+00  -5.865560e-06 3.002967e-06 0.000000e+00  -7.596908e-06 2.866592e-06 0.000000e+00  -9.227098e-06 2.673962e-06 0.000000e+00  -1.071180e-05 2.423139e-06 0.000000e+00  -1.202361e-05 2.120748e-06 0.000000e+00  -1.314712e-05 1.773903e-06 0.000000e+00  -1.404349e-05 1.382519e-06 0.000000e+00  -1.466647e-05 9.472656e-07 0.000000e+00  -1.500838e-05 4.769234e-07 0.000000e+00  -1.507438e-05 -1.951445e-08 0.000000e+00  -1.482782e-05 -5.399626e-07 0.000000e+00  -1.422651e-05 -1.081639e-06 0.000000e+00  -1.328679e-05 -1.634447e-06 0.000000e+00  -1.203795e-05 -2.188432e-06 0.000000e+00  -1.045007e-05 -2.740071e-06 0.000000e+00  -8.489311e-06 -3.285271e-06 0.000000e+00  -6.197925e-06 -3.813744e-06 0.000000e+00  -3.630155e-06 -4.315759e-06 0.000000e+00  -7.652294e-07 -4.787326e-06 0.000000e+00  2.420291e-06 -5.224058e-06 0.000000e+00  5.859494e-06 -5.616789e-06 0.000000e+00  9.475472e-06 -5.957342e-06 0.000000e+00  1.328005e-05 -6.242360e-06 0.000000e+00  1.728689e-05 -6.468272e-06 0.000000e+00  2.140904e-05 -6.628390e-06 0.000000e+00  2.555258e-05 -6.717436e-06 0.000000e+00  2.972331e-05 -6.733760e-06 0.000000e+00  3.392847e-05 -6.675657e-06 0.000000e+00  3.806889e-05 -6.540165e-06 0.000000e+00  4.204254e-05 -6.326084e-06 0.000000e+00  4.585452e-05 -6.034360e-06 0.000000e+00  4.951131e-05 -5.665979e-06 0.000000e+00  5.291218e-05 -5.222657e-06 0.00000