<?xml version="1.0"?>
<VTKFile type="UnstructuredGrid"  version="0.1"  >
<UnstructuredGrid>
<Piece  NumberOfPoints="16641" NumberOfCells="32768">
<Points>
<DataArray  type="Float32"  NumberOfComponents="3"  format="ascii">0 0 0  0.0078125 0 0  0.015625 0 0  0.0234375 0 0  0.03125 0 0  0.0390625 0 0  0.046875 0 0  0.0546875 0 0  0.0625 0 0  0.0703125 0 0  0.078125 0 0  0.0859375 0 0  0.09375 0 0  0.101562 0 0  0.109375 0 0  0.117188 0 0  0.125 0 0  0.132812 0 0  0.140625 0 0  0.148438 0 0  0.15625 0 0  0.164062 0 0  0.171875 0 0  0.179688 0 0  0.1875 0 0  0.195312 0 0  0.203125 0 0  0.210938 0 0  0.21875 0 0  0.226562 0 0  0.234375 0 0  0.242188 0 0  0.25 0 0  0.257812 0 0  0.265625 0 0  0.273438 0 0  0.28125 0 0  0.289062 0 0  0.296875 0 0  0.304688 0 0  0.3125 0 0  0.320312 0 0  0.328125 0 0  0.335938 0 0  0.34375 0 0  0.351562 0 0  0.359375 0 0  0.367188 0 0  0.375 0 0  0.382812 0 0  0.390625 0 0  0.398438 0 0  0.40625 0 0  0.414062 0 0  0.421875 0 0  0.429688 0 0  0.4375 0 0  0.445312 0 0  0.453125 0 0  0.460938 0 0  0.46875 0 0  0.476562 0 0  0.484375 0 0  0.492188 0 0  0.5 0 0  0.507812 0 0  0.515625 0 0  0.523438 0 0  0.53125 0 0  0.539062 0 0  0.546875 0 0  0.554688 0 0  0.5625 0 0  0.570312 0 0  0.578125 0 0  0.585938 0 0  0.59375 0 0  0.601562 0 0  0.609375 0 0  0.617188 0 0  0.625 0 0  0.632812 0 0  0.640625 0 0  0.648438 0 0  0.65625 0 0  0.664062 0 0  0.671875 0 0  0.679688 0 0  0.6875 0 0  0.695312 0 0  0.703125 0 0  0.710938 0 0  0.71875 0 0  0.726562 0 0  0.734375 0 0  0.742188 0 0  0.75 0 0  0.757812 0 0  0.765625 0 0  0.773438 0 0  0.78125 0 0  0.789062 0 0  0.796875 0 0  0.804688 0 0  0.8125 0 0  0.820312 0 0  0.828125 0 0  0.835938 0 0  0.84375 0 0  0.851562 0 0  0.859375 0 0  0.867188 0 0  0.875 0 0  0.882812 0 0  0.890625 0 0  0.898438 0 0  0.90625 0 0  0.914062 0 0  0.921875 0 0  0.929688 0 0  0.9375 0 0  0.945312 0 0  0.953125 0 0  0.960938 0 0  0.96875 0 0  0.976562 0 0  0.984375 0 0  0.992188 0 0  1 0 0  0 0.0078125 0  0.0078125 0.0078125 0  0.015625 0.0078125 0  0.0234375 0.0078125 0  0.03125 0.0078125 0  0.0390625 0.0078125 0  0.046875 0.0078125 0  0.0546875 0.0078125 0  0.0625 0.0078125 0  0.0703125 0.0078125 0  0.078125 0.0078125 0  0.0859375 0.0078125 0  0.09375 0.0078125 0  0.101562 0.0078125 0  0.109375 0.0078125 0  0.117188 0.0078125 0  0.125 0.0078125 0  0.132812 0.0078125 0  0.140625 0.0078125 0  0.148438 0.0078125 0  0.15625 0.0078125 0  0.164062 0.0078125 0  0.171875 0.0078125 0  0.179688 0.0078125 0  0.1875 0.0078125 0  0.195312 0.0078125 0  0.203125 0.0078125 0  0.210938 0.0078125 0  0.21875 0.0078125 0  0.226562 0.0078125 0  0.234375 0.0078125 0  0.242188 0.0078125 0  0.25 0.0078125 0  0.257812 0.0078125 0  0.265625 0.0078125 0  0.273438 0.0078125 0  0.28125 0.0078125 0  0.289062 0.0078125 0  0.296875 0.0078125 0  0.304688 0.0078125 0  0.3125 0.0078125 0  0.320312 0.0078125 0  0.328125 0.0078125 0  0.335938 0.0078125 0  0.34375 0.0078125 0  0.351562 0.0078125 0  0.359375 0.0078125 0  0.367188 0.0078125 0  0.375 0.0078125 0  0.382812 0.0078125 0  0.390625 0.0078125 0  0.398438 0.0078125 0  0.40625 0.0078125 0  0.414062 0.0078125 0  0.421875 0.0078125 0  0.429688 0.0078125 0  0.4375 0.0078125 0  0.445312 0.0078125 0  0.453125 0.0078125 0  0.460938 0.0078125 0  0.46875 0.0078125 0  0.476562 0.0078125 0  0.484375 0.0078125 0  0.492188 0.0078125 0  0.5 0.0078125 0  0.507812 0.0078125 0  0.515625 0.0078125 0  0.523438 0.0078125 0  0.53125 0.0078125 0  0.539062 0.0078125 0  0.546875 0.0078125 0  0.554688 0.0078125 0  0.5625 0.0078125 0  0.570312 0.0078125 0  0.578125 0.0078125 0  0.585938 0.0078125 0  0.59375 0.0078125 0  0.601562 0.0078125 0  0.609375 0.0078125 0  0.617188 0.0078125 0  0.625 0.0078125 0  0.632812 0.0078125 0  0.640625 0.0078125 0  0.648438 0.0078125 0  0.65625 0.0078125 0  0.664062 0.0078125 0  0.671875 0.0078125 0  0.679688 0.0078125 0  0.6875 0.0078125 0  0.695312 0.0078125 0  0.703125 0.0078125 0  0.710938 0.0078125 0  0.71875 0.0078125 0  0.726562 0.0078125 0  0.734375 0.0078125 0  0.742188 0.0078125 0  0.75 0.0078125 0  0.757812 0.0078125 0  0.765625 0.0078125 0  0.773438 0.0078125 0  0.78125 0.0078125 0  0.789062 0.0078125 0  0.796875 0.0078125 0  0.804688 0.0078125 0  0.8125 0.0078125 0  0.820312 0.0078125 0  0.828125 0.0078125 0  0.835938 0.0078125 0  0.84375 0.0078125 0  0.851562 0.0078125 0  0.859375 0.0078125 0  0.867188 0.0078125 0  0.875 0.0078125 0  0.882812 0.0078125 0  0.890625 0.0078125 0  0.898438 0.0078125 0  0.90625 0.0078125 0  0.914062 0.0078125 0  0.921875 0.0078125 0  0.929688 0.0078125 0  0.9375 0.0078125 0  0.945312 0.0078125 0  0.953125 0.0078125 0  0.960938 0.0078125 0  0.96875 0.0078125 0  0.976562 0.0078125 0  0.984375 0.0078125 0  0.992188 0.0078125 0  1 0.0078125 0  0 0.015625 0  0.0078125 0.015625 0  0.015625 0.015625 0  0.0234375 0.015625 0  0.03125 0.015625 0  0.0390625 0.015625 0  0.046875 0.015625 0  0.0546875 0.015625 0  0.0625 0.015625 0  0.0703125 0.015625 0  0.078125 0.015625 0  0.0859375 0.015625 0  0.09375 0.015625 0  0.101562 0.015625 0  0.109375 0.015625 0  0.117188 0.015625 0  0.125 0.015625 0  0.132812 0.015625 0  0.140625 0.015625 0  0.148438 0.015625 0  0.15625 0.015625 0  0.164062 0.015625 0  0.171875 0.015625 0  0.179688 0.015625 0  0.1875 0.015625 0  0.195312 0.015625 0  0.203125 0.015625 0  0.210938 0.015625 0  0.21875 0.015625 0  0.226562 0.015625 0  0.234375 0.015625 0  0.242188 0.015625 0  0.25 0.015625 0  0.257812 0.015625 0  0.265625 0.015625 0  0.273438 0.015625 0  0.28125 0.015625 0  0.289062 0.015625 0  0.296875 0.015625 0  0.304688 0.015625 0  0.3125 0.015625 0  0.320312 0.015625 0  0.328125 0.015625 0  0.335938 0.015625 0  0.34375 0.015625 0  0.351562 0.015625 0  0.359375 0.015625 0  0.367188 0.015625 0  0.375 0.015625 0  0.382812 0.015625 0  0.390625 0.015625 0  0.398438 0.015625 0  0.40625 0.015625 0  0.414062 0.015625 0  0.421875 0.015625 0  0.429688 0.015625 0  0.4375 0.015625 0  0.445312 0.015625 0  0.453125 0.015625 0  0.460938 0.015625 0  0.46875 0.015625 0  0.476562 0.015625 0  0.484375 0.015625 0  0.492188 0.015625 0  0.5 0.015625 0  0.507812 0.015625 0  0.515625 0.015625 0  0.523438 0.015625 0  0.53125 0.015625 0  0.539062 0.015625 0  0.546875 0.015625 0  0.554688 0.015625 0  0.5625 0.015625 0  0.570312 0.015625 0  0.578125 0.015625 0  0.585938 0.015625 0  0.59375 0.015625 0  0.601562 0.015625 0  0.609375 0.015625 0  0.617188 0.015625 0  0.625 0.015625 0  0.632812 0.015625 0  0.640625 0.015625 0  0.648438 0.015625 0  0.65625 0.015625 0  0.664062 0.015625 0  0.671875 0.015625 0  0.679688 0.015625 0  0.6875 0.015625 0  0.695312 0.015625 0  0.703125 0.015625 0  0.710938 0.015625 0  0.71875 0.015625 0  0.726562 0.015625 0  0.734375 0.015625 0  0.742188 0.015625 0  0.75 0.015625 0  0.757812 0.015625 0  0.765625 0.015625 0  0.773438 0.015625 0  0.78125 0.015625 0  0.789062 0.015625 0  0.796875 0.015625 0  0.804688 0.015625 0  0.8125 0.015625 0  0.820312 0.015625 0  0.828125 0.015625 0  0.835938 0.015625 0  0.84375 0.015625 0  0.851562 0.015625 0  0.859375 0.015625 0  0.867188 0.015625 0  0.875 0.015625 0  0.882812 0.015625 0  0.890625 0.015625 0  0.898438 0.015625 0  0.90625 0.015625 0  0.914062 0.015625 0  0.921875 0.015625 0  0.929688 0.015625 0  0.9375 0.015625 0  0.945312 0.015625 0  0.953125 0.015625 0  0.960938 0.015625 0  0.96875 0.015625 0  0.976562 0.015625 0  0.984375 0.015625 0  0.992188 0.015625 0  1 0.015625 0  0 0.0234375 0  0.0078125 0.0234375 0  0.015625 0.0234375 0  0.0234375 0.0234375 0  0.03125 0.0234375 0  0.0390625 0.0234375 0  0.046875 0.0234375 0  0.0546875 0.0234375 0  0.0625 0.0234375 0  0.0703125 0.0234375 0  0.078125 0.0234375 0  0.0859375 0.0234375 0  0.09375 0.0234375 0  0.101562 0.0234375 0  0.109375 0.0234375 0  0.117188 0.0234375 0  0.125 0.0234375 0  0.132812 0.0234375 0  0.140625 0.0234375 0  0.148438 0.0234375 0  0.15625 0.0234375 0  0.164062 0.0234375 0  0.171875 0.0234375 0  0.179688 0.0234375 0  0.1875 0.0234375 0  0.195312 0.0234375 0  0.203125 0.0234375 0  0.210938 0.0234375 0  0.21875 0.0234375 0  0.226562 0.0234375 0  0.234375 0.0234375 0  0.242188 0.0234375 0  0.25 0.0234375 0  0.257812 0.0234375 0  0.265625 0.0234375 0  0.273438 0.0234375 0  0.28125 0.0234375 0  0.289062 0.0234375 0  0.296875 0.0234375 0  0.304688 0.0234375 0  0.3125 0.0234375 0  0.320312 0.0234375 0  0.328125 0.0234375 0  0.335938 0.0234375 0  0.34375 0.0234375 0  0.351562 0.0234375 0  0.359375 0.0234375 0  0.367188 0.0234375 0  0.375 0.0234375 0  0.382812 0.0234375 0  0.390625 0.0234375 0  0.398438 0.0234375 0  0.40625 0.0234375 0  0.414062 0.0234375 0  0.421875 0.0234375 0  0.429688 0.0234375 0  0.4375 0.0234375 0  0.445312 0.0234375 0  0.453125 0.0234375 0  0.460938 0.0234375 0  0.46875 0.0234375 0  0.476562 0.0234375 0  0.484375 0.0234375 0  0.492188 0.0234375 0  0.5 0.0234375 0  0.507812 0.0234375 0  0.515625 0.0234375 0  0.523438 0.0234375 0  0.53125 0.0234375 0  0.539062 0.0234375 0  0.546875 0.0234375 0  0.554688 0.0234375 0  0.5625 0.0234375 0  0.570312 0.0234375 0  0.578125 0.0234375 0  0.585938 0.0234375 0  0.59375 0.0234375 0  0.601562 0.0234375 0  0.609375 0.0234375 0  0.617188 0.0234375 0  0.625 0.0234375 0  0.632812 0.0234375 0  0.640625 0.0234375 0  0.648438 0.0234375 0  0.65625 0.0234375 0  0.664062 0.0234375 0  0.671875 0.0234375 0  0.679688 0.0234375 0  0.6875 0.0234375 0  0.695312 0.0234375 0  0.703125 0.0234375 0  0.710938 0.0234375 0  0.71875 0.0234375 0  0.726562 0.0234375 0  0.734375 0.0234375 0  0.742188 0.0234375 0  0.75 0.0234375 0  0.757812 0.0234375 0  0.765625 0.0234375 0  0.773438 0.0234375 0  0.78125 0.0234375 0  0.789062 0.0234375 0  0.796875 0.0234375 0  0.804688 0.0234375 0  0.8125 0.0234375 0  0.820312 0.0234375 0  0.828125 0.0234375 0  0.835938 0.0234375 0  0.84375 0.0234375 0  0.851562 0.0234375 0  0.859375 0.0234375 0  0.867188 0.0234375 0  0.875 0.0234375 0  0.882812 0.0234375 0  0.890625 0.0234375 0  0.898438 0.0234375 0  0.90625 0.0234375 0  0.914062 0.0234375 0  0.921875 0.0234375 0  0.929688 0.0234375 0  0.9375 0.0234375 0  0.945312 0.0234
[...]
<PointData  Vectors="u"> 
<DataArray  type="Float32"  Name="u"  NumberOfComponents="3" format="ascii">9.291956e-11 -1.079216e-10 0.000000e+00  3.813160e-11 -1.817909e-11 0.000000e+00  -2.466106e-10 1.988829e-10 0.000000e+00  -3.805666e-10 2.308325e-10 0.000000e+00  -6.651799e-10 2.647846e-10 0.000000e+00  -1.044949e-09 3.081281e-10 0.000000e+00  -1.469972e-09 3.282038e-10 0.000000e+00  -1.906041e-09 3.261381e-10 0.000000e+00  -2.326972e-09 3.066642e-10 0.000000e+00  -2.712504e-09 2.745642e-10 0.000000e+00  -3.049269e-09 2.348608e-10 0.000000e+00  -3.330580e-09 1.922863e-10 0.000000e+00  -3.555820e-09 1.510306e-10 0.000000e+00  -3.728577e-09 1.145597e-10 0.000000e+00  -3.858243e-09 8.560754e-11 0.000000e+00  -3.956128e-09 6.603267e-11 0.000000e+00  -4.034840e-09 5.687105e-11 0.000000e+00  -4.108624e-09 5.839568e-11 0.000000e+00  -4.192373e-09 7.019198e-11 0.000000e+00  -4.299099e-09 9.123929e-11 0.000000e+00  -4.439312e-09 1.200233e-10 0.000000e+00  -4.622238e-09 1.547121e-10 0.000000e+00  -4.855438e-09 1.933140e-10 0.000000e+00  -5.142730e-09 2.337275e-10 0.000000e+00  -5.484123e-09 2.738179e-10 0.000000e+00  -5.878036e-09 3.116069e-10 0.000000e+00  -6.321604e-09 3.453504e-10 0.000000e+00  -6.808458e-09 3.734209e-10 0.000000e+00  -7.328810e-09 3.942971e-10 0.000000e+00  -7.872554e-09 4.067142e-10 0.000000e+00  -8.429642e-09 4.096237e-10 0.000000e+00  -8.986922e-09 4.019697e-10 0.000000e+00  -9.528087e-09 3.826748e-10 0.000000e+00  -1.003748e-08 3.507882e-10 0.000000e+00  -1.050018e-08 3.054229e-10 0.000000e+00  -1.089776e-08 2.456079e-10 0.000000e+00  -1.120845e-08 1.703832e-10 0.000000e+00  -1.141170e-08 7.895247e-11 0.000000e+00  -1.148803e-08 -2.933879e-11 0.000000e+00  -1.141457e-08 -1.549438e-10 0.000000e+00  -1.116603e-08 -2.979084e-10 0.000000e+00  -1.071981e-08 -4.578542e-10 0.000000e+00  -1.005578e-08 -6.340150e-10 0.000000e+00  -9.152685e-09 -8.249408e-10 0.000000e+00  -7.990246e-09 -1.028304e-09 0.000000e+00  -6.553712e-09 -1.241259e-09 0.000000e+00  -4.833031e-09 -1.460580e-09 0.000000e+00  -2.821283e-09 -1.682141e-09 0.000000e+00  -5.176172e-10 -1.900873e-09 0.000000e+00  2.071235e-09 -2.111641e-09 0.000000e+00  4.932958e-09 -2.309476e-09 0.000000e+00  8.048071e-09 -2.488782e-09 0.000000e+00  1.138707e-08 -2.643481e-09 0.000000e+00  1.491439e-08 -2.768315e-09 0.000000e+00  1.859172e-08 -2.858976e-09 0.000000e+00  2.237193e-08 -2.911045e-09 0.000000e+00  2.619701e-08 -2.920247e-09 0.000000e+00  3.000892e-08 -2.883862e-09 0.000000e+00  3.375328e-08 -2.800601e-09 0.000000e+00  3.736762e-08 -2.669398e-09 0.000000e+00  4.078072e-08 -2.489741e-09 0.000000e+00  4.392974e-08 -2.262823e-09 0.000000e+00  4.676290e-08 -1.991142e-09 0.000000e+00  4.922218e-08 -1.677488e-09 0.000000e+00  5.124410e-08 -1.325298e-09 0.000000e+00  5.278136e-08 -9.392626e-10 0.000000e+00  5.380309e-08 -5.247589e-10 0.000000e+00  5.427376e-08 -8.737579e-11 0.000000e+00  5.415568e-08 3.667421e-10 0.000000e+00  5.343181e-08 8.310398e-10 0.000000e+00  5.210295e-08 1.299123e-09 0.000000e+00  5.016621e-08 1.764456e-09 0.000000e+00  4.761910e-08 2.220096e-09 0.000000e+00  4.447962e-08 2.659630e-09 0.000000e+00  4.078078e-08 3.077591e-09 0.000000e+00  3.655237e-08 3.468316e-09 0.000000e+00  3.182653e-08 3.825803e-09 0.000000e+00  2.665140e-08 4.145332e-09 0.000000e+00  2.108386e-08 4.423598e-09 0.000000e+00  1.517865e-08 4.656877e-09 0.000000e+00  8.994585e-09 4.841069e-09 0.000000e+00  2.599131e-09 4.973763e-09 0.000000e+00  -3.939262e-09 5.054094e-09 0.000000e+00  -1.055212e-08 5.080556e-09 0.000000e+00  -1.716506e-08 5.051288e-09 0.000000e+00  -2.370383e-08 4.966321e-09 0.000000e+00  -3.010111e-08 4.827217e-09 0.000000e+00  -3.628693e-08 4.634950e-09 0.000000e+00  -4.218445e-08 4.390435e-09 0.000000e+00  -4.772647e-08 4.096574e-09 0.000000e+00  -5.286051e-08 3.757720e-09 0.000000e+00  -5.752986e-08 3.377941e-09 0.000000e+00  -6.167185e-08 2.961641e-09 0.000000e+00  -6.524293e-08 2.514950e-09 0.000000e+00  -6.822086e-08 2.045004e-09 0.000000e+00  -7.057875e-08 1.558793e-09 0.000000e+00  -7.228595e-08 1.063657e-09 0.000000e+00  -7.333739e-08 5.677232e-10 0.000000e+00  -7.375215e-08 7.910237e-11 0.000000e+00  -7.354353e-08 -3.945067e-10 0.000000e+00  -7.272184e-08 -8.455252e-10 0.000000e+00  -7.132338e-08 -1.266949e-09 0.000000e+00  -6.940531e-08 -1.652954e-09 0.000000e+00  -6.701587e-08 -1.998449e-09 0.000000e+00  -6.419820e-08 -2.298918e-09 0.000000e+00  -6.101551e-08 -2.551436e-09 0.000000e+00  -5.754378e-08 -2.754863e-09 0.000000e+00  -5.384597e-08 -2.908686e-09 0.000000e+00  -4.997653e-08 -3.012971e-09 0.000000e+00  -4.600106e-08 -3.069581e-09 0.000000e+00  -4.198886e-08 -3.081965e-09 0.000000e+00  -3.799373e-08 -3.053662e-09 0.000000e+00  -3.405887e-08 -2.988343e-09 0.000000e+00  -3.023071e-08 -2.890945e-09 0.000000e+00  -2.655308e-08 -2.767177e-09 0.000000e+00  -2.305544e-08 -2.622017e-09 0.000000e+00  -1.975775e-08 -2.459763e-09 0.000000e+00  -1.667974e-08 -2.284866e-09 0.000000e+00  -1.383777e-08 -2.101296e-09 0.000000e+00  -1.123989e-08 -1.911301e-09 0.000000e+00  -8.890860e-09 -1.715548e-09 0.000000e+00  -6.798224e-09 -1.513890e-09 0.000000e+00  -4.971641e-09 -1.305080e-09 0.000000e+00  -3.422289e-09 -1.086782e-09 0.000000e+00  -2.165643e-09 -8.547892e-10 0.000000e+00  -1.223715e-09 -6.110765e-10 0.000000e+00  -6.012576e-10 -3.886771e-10 0.000000e+00  -2.997876e-10 -2.534462e-10 0.000000e+00  -2.643016e-10 -2.424957e-10 0.000000e+00  2.896324e-11 -9.120152e-12 0.000000e+00  5.060366e-06 -5.072937e-06 0.000000e+00  2.550494e-05 -1.501480e-05 0.000000e+00  6.228659e-05 -2.293156e-05 0.000000e+00  1.107271e-04 -2.790832e-05 0.000000e+00  1.657691e-04 -3.015215e-05 0.000000e+00  2.228291e-04 -3.013705e-05 0.000000e+00  2.782014e-04 -2.839592e-05 0.000000e+00  3.291352e-04 -2.545236e-05 0.000000e+00  3.738172e-04 -2.179992e-05 0.000000e+00  4.113121e-04 -1.788769e-05 0.000000e+00  4.414745e-04 -1.410848e-05 0.000000e+00  4.648365e-04 -1.078909e-05 0.000000e+00  4.824819e-04 -8.182797e-06 0.000000e+00  4.958915e-04 -6.470297e-06 0.000000e+00  5.068327e-04 -5.752416e-06 0.000000e+00  5.171863e-04 -6.058005e-06 0.000000e+00  5.288336e-04 -7.355384e-06 0.000000e+00  5.435577e-04 -9.558309e-06 0.000000e+00  5.629165e-04 -1.253291e-05 0.000000e+00  5.881724e-04 -1.611396e-05 0.000000e+00  6.202946e-04 -2.012170e-05 0.000000e+00  6.599169e-04 -2.436898e-05 0.000000e+00  7.072636e-04 -2.866634e-05 0.000000e+00  7.621938e-04 -3.283393e-05 0.000000e+00  8.243126e-04 -3.671151e-05 0.000000e+00  8.929509e-04 -4.015631e-05 0.000000e+00  9.670916e-04 -4.303799e-05 0.000000e+00  1.045470e-03 -4.524126e-05 0.000000e+00  1.126728e-03 -4.666751e-05 0.000000e+00  1.209345e-03 -4.722562e-05 0.000000e+00  1.291500e-03 -4.682239e-05 0.000000e+00  1.371185e-03 -4.536403e-05 0.000000e+00  1.446372e-03 -4.275910e-05 0.000000e+00  1.514877e-03 -3.891286e-05 0.000000e+00  1.574175e-03 -3.372431e-05 0.000000e+00  1.621549e-03 -2.709532e-05 0.000000e+00  1.654306e-03 -1.894073e-05 0.000000e+00  1.669635e-03 -9.191101e-06 0.000000e+00  1.664426e-03 2.201566e-06 0.000000e+00  1.635522e-03 1.524964e-05 0.000000e+00  1.580017e-03 2.991868e-05 0.000000e+00  1.495142e-03 4.612288e-05 0.000000e+00  1.378144e-03 6.371874e-05 0.000000e+00  1.226619e-03 8.249802e-05 0.000000e+00  1.038857e-03 1.021877e-04 0.000000e+00  8.137384e-04 1.224534e-04 0.000000e+00  5.506209e-04 1.429020e-04 0.000000e+00  2.496707e-04 1.630902e-04 0.000000e+00  -8.785786e-05 1.825410e-04 0.000000e+00  -4.597961e-04 2.007556e-04 0.000000e+00  -8.632228e-04 2.172233e-04 0.000000e+00  -1.294253e-03 2.314419e-04 0.000000e+00  -1.747914e-03 2.429396e-04 0.000000e+00  -2.218416e-03 2.512860e-04 0.000000e+00  -2.699382e-03 2.560995e-04 0.000000e+00  -3.183787e-03 2.570641e-04 0.000000e+00  -3.663983e-03 2.539464e-04 0.000000e+00  -4.132017e-03 2.465960e-04 0.000000e+00  -4.579872e-03 2.349422e-04 0.000000e+00  -4.999500e-03 2.190025e-04 0.000000e+00  -5.382938e-03 1.988890e-04 0.000000e+00  -5.722577e-03 1.747988e-04 0.000000e+00  -6.011340e-03 1.470018e-04 0.000000e+00  -6.242742e-03 1.158410e-04 0.000000e+00  -6.411029e-03 8.173285e-05 0.000000e+00  -6.511338e-03 4.515083e-05 0.000000e+00  -6.539753e-03 6.608033e-06 0.000000e+00  -6.493353e-03 -3.334595e-05 0.000000e+00  -6.370335e-03 -7.412781e-05 0.000000e+00  -6.170034e-03 -1.151391e-04 0.000000e+00  -5.892837e-03 -1.557851e-04 0.000000e+00  -5.540206e-03 -1.954775e-04 0.000000e+00  -5.114784e-03 -2.336362e-04 0.000000e+00  -4.620277e-03 -2.697059e-04 0.000000e+00  -4.061232e-03 -3.031719e-04 0.000000e+00  -3.443069e-03 -3.335580e-04 0.000000e+00  -2.772181e-03 -3.604252e-04 0.000000e+00  -2.055719e-03 -3.833839e-04 0.000000e+00  -1.301276e-03 -4.021023e-04 0.000000e+00  -5.169603e-04 -4.163022e-04 0.000000e+00  2.884772e-04 -4.257560e-04 0.000000e+00  1.105935e-03 -4.302958e-04 0.000000e+00  1.926313e-03 -4.298183e-04 0.000000e+00  2.740401e-03 -4.242821e-04 0.000000e+00  3.538744e-03 -4.137100e-04 0.000000e+00  4.311994e-03 -3.981969e-04 0.000000e+00  5.051282e-03 -3.779119e-04 0.000000e+00  5.748112e-03 -3.530999e-04 0.000000e+00  6.394250e-03 -3.240867e-04 0.000000e+00  6.982125e-03 -2.912794e-04 0.000000e+00  7.505196e-03 -2.551610e-04 0.000000e+00  7.957849e-03 -2.162868e-04 0.000000e+00  8.335316e-03 -1.752816e-04 0.000000e+00  8.634027e-03 -1.328248e-04 0.000000e+00  8.851895e-03 -8.962988e-05 0.000000e+00  8.988151e-03 -4.643031e-05 0.000000e+00  9.043207e-03 -3.965997e-06 0.000000e+00  9.018856e-03 3.704314e-05 0.000000e+00  8.918364e-03 7.592462e-05 0.000000e+00  8.746198e-03 1.120676e-04 0.000000e+00  8.507785e-03 1.449338e-04 0.000000e+00  8.209524e-03 1.740784e-04 0.000000e+00  7.858696e-03 1.991662e-04 0.000000e+00  7.463131e-03 2.199722e-04 0.000000e+00  7.030931e-03 2.363773e-04 0.000000e+00  6.570380e-03 2.483724e-04 0.000000e+00  6.089780e-03 2.560594e-04 0.000000e+00  5.597169e-03 2.596365e-04 0.000000e+00  5.100128e-03 2.593813e-04 0.000000e+00  4.605691e-03 2.556439e-04 0.000000e+00  4.120214e-03 2.488379e-04 0.000000e+00  3.649234e-03 2.394174e-04 0.000000e+00  3.197431e-03 2.278533e-04 0.000000e+00  2.768611e-03 2.146191e-04 0.000000e+00  2.365685e-03 2.001710e-04 0.000000e+00  1.990736e-03 1.849177e-04 0.000000e+00  1.645174e-03 1.691893e-04 0.000000e+00  1.329884e-03 1.532138e-04 0.000000e+00  1.045371e-03 1.370927e-04 0.000000e+00  7.920554e-04 1.207751e-04 0.000000e+00  5.706222e-04 1.040498e-04 0.000000e+00  3.822212e-04 8.656896e-05 0.000000e+00  2.285657e-04 6.792038e-05 0.000000e+00  1.119269e-04 4.781877e-05 0.000000e+00  3.452531e-05 2.655483e-05 0.000000e+00  -3.335972e-06 6.057861e-06 0.000000e+00  -7.509565e-06 -7.566167e-06 0.000000e+00  -8.153351e-11 -3.264617e-11 0.000000e+00  -1.141789e-10 1.102399e-10 0.000000e+00  1.496546e-05 -2.548306e-05 0.000000e+00  5.734308e-05 -5.737852e-05 0.000000e+00  1.232557e-04 -8.315011e-05 0.000000e+00  2.060662e-04 -9.971557e-05 0.000000e+00  2.984978e-04 -1.072709e-04 0.000000e+00  3.936284e-04 -1.071338e-04 0.000000e+00  4.856432e-04 -1.009743e-04 0.000000e+00  5.700819e-04 -9.053619e-05 0.000000e+00  6.439156e-04 -7.751126e-05 0.000000e+00  7.055039e-04 -6.346303e-05 0.000000e+00  7.544796e-04 -4.977213e-05 0.000000e+00  7.915816e-04 -3.759528e-05 0.000000e+00  8.184568e-04 -2.783399e-05 0.000000e+00  8.374165e-04 -2.113706e-05 0.000000e+00  8.512457e-04 -1.786989e-05 0.000000e+00  8.629194e-04 -1.814195e-05 0.000000e+00  8.754264e-04 -2.184740e-05 0.000000e+00  8.915978e-04 -2.868431e-05 0.000000e+00  9.138771e-04 -3.817739e-05 0.000000e+00  9.442078e-04 -4.973677e-05 0.000000e+00  9.840556e-04 -6.271951e-05 0.000000e+00  1.034323e-03 -7.645424e-05 0.000000e+00  1.095200e-03 -9.025839e-05 0.000000e+00  1.166253e-03 -1.034830e-04 0.000000e+00  1.246643e-03 -1.155504e-04 0.000000e+00  1.335069e-03 -1.259465e-04 0.000000e+00  1.429619e-03 -1.342019e-04 0.000000e+00  1.527967e-03 -1.399044e-04 0.000000e+00  1.627668e-03 -1.427062e-04 0.000000e+00  1.726027e-03 -1.422909e-04 0.000000e+00  1.819831e-03 -1.383387e-04 0.000000e+00  1.905579e-03 -1.305345e-04 0.000000e+00  1.979817e-03 -1.185789e-04 0.000000e+00  2.038883e-03 -1.021679e-04 0.000000e+00  2.078554e-03 -8.098089e-05 0.000000e+00  2.094354e-03 -5.471549e-05 0.000000e+00  2.081973e-03 -2.312346e-05 0.000000e+00  2.036989e-03 1.398168e-05 0.000000e+00  1.954529e-03 5.670468e-05 0.000000e+00  1.829738e-03 1.050181e-04 0.000000e+00  1.658343e-03 1.587242e-04 0.000000e+00  1.436412e-03 2.174421e-04 0.000000e+00  1.160092e-03 2.805859e-04 0.000000e+00  8.262197e-04 3.473422e-04 0.000000e+00  4.329433e-04 4.166734e-04 0.000000e+00  -2.052375e-05 4.873333e-04 0.000000e+00  -5.341488e-04 5.578770e-04 0.000000e+00  -1.106501e-03 6.266959e-04 0.000000e+00  -1.734258e-03 6.920778e-04 0.000000e+00  -2.412581e-03 7.522522e-04 0.000000e+00  -3.135448e-03 8.054256e-04 0.000000e+00  -3.895289e-03 8.498534e-04 0.000000e+00  -4.682770e-03 8.839216e-04 0.000000e+00  -5.487321e-03 9.061844e-04 0.000000e+00  -6.297580e-03 9.153852e-04 0.000000e+00  -7.101271e-03 9.105185e-04 0.000000e+00  -7.885251e-03 8.908884e-04 0.000000e+00  -8.636089e-03 8.561056e-04 0.000000e+00  -9.340495e-03 8.060704e-04 0.000000e+00  -9.985358e-03 7.410012e-04 0.000000e+00  -1.055792e-02 6.614554e-04 0.000000e+00  -1.104626e-02 5.682883e-04 0.000000e+00  -1.143956e-02 4.626031e-04 0.000000e+00  -1.172819e-02 3.457507e-04 0.000000e+00  -1.190391e-02 2.193280e-04 0.000000e+00  -1.196009e-02 8.511376e-05 0.000000e+00  -1.189183e-02 -5.499952e-05 0.000000e+00  -1.169590e-02 -1.990167e-04 0.000000e+00  -1.137100e-02 -3.448501e-04 0.000000e+00  -1.091770e-02 -4.903893e-04 0.000000e+00  -1.033825e-02 -6.335709e-04 0.000000e+00  -9.636581e-03 -7.723841e-04 0.000000e+00  -8.818435e-03 -9.048728e-04 0.000000e+00  -7.891162e-03 -1.029196e-03 0.000000e+00  -6.863254e-03 -1.143679e-03 0.000000e+00  -5.744400e-03 -1.246799e-03 0.000000e+00  -4.545685e-03 -1.337175e-03 0.000000e+00  -3.279180e-03 -1.413603e-03 0.000000e+00  -1.957388e-03 -1.475083e-03 0.000000e+00  -5.934014e-04 -1.520793e-03 0.000000e+00  7.988029e-04 -1.550071e-03 0.000000e+00  2.204860e-03 -1.562441e-03 0.000000e+00  3.610617e-03 -1.557630e-03 0.000000e+00  5.001853e-03 -1.535546e-03 0.000000e+00  6.363936e-03 -1.496289e-03 0.000000e+00  7.682408e-03 -1.440175e-03 0.000000e+00  8.943609e-03 -1.367748e-03 0.000000e+00  1.013438e-02 -1.279785e-03 0.000000e+00  1.124179e-02 -1.177319e-03 0.000000e+00  1.225379e-02 -1.061649e-03 0.000000e+00  1.315987e-02 -9.343259e-04 0.000000e+00  1.395083e-02 -7.971521e-04 0.000000e+00  1.461852e-02 -6.521772e-04 0.000000e+00  1.515657e-02 -5.016572e-04 0.000000e+00  1.556088e-02 -3.479871e-04 0.000000e+00  1.582935e-02 -1.936608e-04 0.000000e+00  1.596164e-02 -4.122883e-05 0.000000e+00  1.595959e-02 1.067916e-04 0.000000e+00  1.582753e-02 2.480143e-04 0.000000e+00  1.557175e-02 3.802337e-04 0.000000e+00  1.520019e-02 5.014652e-04 0.000000e+00  1.472253e-02 6.100235e-04 0.000000e+00  1.415010e-02 7.045915e-04 0.000000e+00  1.349535e-02 7.842251e-04 0.000000e+00  1.277136e-02 8.483443e-04 0.000000e+00  1.199176e-02 8.967593e-04 0.000000e+00  1.117045e-02 9.296815e-04 0.000000e+00  1.032112e-02 9.476752e-04 0.000000e+00  9.456891e-03 9.516016e-04 0.000000e+00  8.590130e-03 9.425998e-04 0.000000e+00  7.732256e-03 9.220563e-04 0.000000e+00  6.893437e-03 8.915223e-04 0.000000e+00  6.082489e-03 8.526282e-04 0.000000e+00  5.306837e-03 8.070304e-04 0.000000e+00  4.572456e-03 7.563427e-04 0.000000e+00  3.883935e-03 7.020243e-04 0.000000e+00  3.244733e-03 6.452708e-04 0.000000e+00  2.657380e-03 5.869379e-04 0.000000e+00  2.123686e-03 5.274619e-04 0.000000e+00  1.645174e-03 4.667861e-04 0.000000e+00  1.223581e-03 4.043578e-04 0.000000e+00  8.610780e-04 3.392445e-04 0.000000e+00  5.602802e-04 2.704258e-04 0.000000e+00  3.240980e-04 1.974494e-04 0.000000e+00  1.547911e-04 1.218171e-04 0.000000e+00  5.169779e-05 4.972286e-05 0.000000e+00  6.997619e-06 -2.806559e-06 0.000000e+00  -6.465298e-11 -6.110396e-11 0.000000e+00  -3.135309e-11 3.035326e-11 0.000000e+00  2.302405e-05 -6.233126e-05 0.000000e+00  8.372145e-05 -1.235095e-04 0.000000e+00  1.722739e-04 -1.713080e-04 0.000000e+00  2.795737e-04 -2.018367e-04 0.000000e+00  3.968013e-04 -2.153899e-04 0.000000e+00  5.157960e-04 -2.141753e-04 0.000000e+00  6.296386e-04 -2.012038e-04 0.000000e+00  7.329429e-04 -1.797553e-04 0.000000e+00  8.219870e-04 -1.530862e-04 0.000000e+00  8.946940e-04 -1.242473e-04 0.000000e+00  9.505150e-04 -9.595406e-05 0.000000e+00  9.902400e-04 -7.049403e-05 0.000000e+00  1.015759e-03 -4.965622e-05 0.000000e+00  1.029782e-03 -3.473422e-05 0.000000e+00  1.035580e-03 -2.645596e-05 0.000000e+00  1.036643e-03 -2.503797e-05 0.000000e+00  1.036481e-03 -3.026755e-05 0.000000e+00  1.038397e-03 -4.153734e-05 0.000000e+00  1.045176e-03 -5.788711e-05 0.000000e+00  1.058957e-03 -7.812439e-05 0.000000e+00  1.081294e-03 -1.009515e-04 0.000000e+00  1.113033e-03 -1.250136e-04 0.000000e+00  1.154087e-03 -1.489312e-04 0.000000e+00  1.203581e-03 -1.713947e-04 0.000000e+00  1.260178e-03 -1.912455e-04 0.000000e+00  1.321983e-03 -2.074575e-04 0.000000e+00  1.386313e-03 -2.190992e-04 0.000000e+00  1.449991e-03 -2.253607e-04 0.000000e+00  1.509789e-03 -2.255750e-04 0.000000e+00  1.562218e-03 -2.191469e-04 0.000000e+00  1.603148e-03 -2.054830e-04 0.000000e+00  1.628155e-03 -1.840100e-04 0.000000e+00  1.633013e-03 -1.542018e-04 0.000000e+00  1.613333e-03 -1.155340e-04 0.000000e+00  1.564055e-03 -6.745973e-05 0.000000e+00  1.479907e-03 -9.481260e-06 0.000000e+00  1.356011e-03 5.877674e-05 0.000000e+00  1.187477e-03 1.375555e-04 0.000000e+00  9.689072e-04 2.269246e-04 0.000000e+00  6.950616e-04 3.266806e-04 0.000000e+00  3.616386e-04 4.362751e-04 0.000000e+00  -3.510058e-05 5.547930e-04 0.000000e+00  -4.987413e-04 6.809141e-04 0.000000e+00  -1.031888e-03 8.128716e-04 0.000000e+00  -1.635324e-03 9.484675e-04 0.000000e+00  -2.308426e-03 1.085108e-03 0.000000e+00  -3.049565e-03 1.219830e-03 0.000000e+00  -3.855337e-03 1.349375e-03 0.000000e+00  -4.719924e-03 1.470316e-03 0.000000e+00  -5.635672e-03 1.579153e-03 0.000000e+00  -6.593612e-03 1.672383e-03 0.000000e+00  -7.582973e-03 1.746640e-03 0.000000e+00  -8.590906e-03 1.798872e-03 0.000000e+00  -9.603244e-03 1.826400e-03 0.000000e+00  -1.060514e-02 1.826959e-03 0.000000e+00  -1.158086e-02 1.798818e-03 0.000000e+00  -1.251388e-02 1.740894e-03 0.000000e+00  -1.338761e-02 1.652735e-03 0.000000e+00  -1.418602e-02 1.534474e-03 0.000000e+00  -1.489357e-02 1.386881e-03 0.000000e+00  -1.549551e-02 1.211403e-03 0.000000e+00  -1.597836e-02 1.010061e-03 0.000000e+00  -1.633034e-02 7.853466e-04 0.000000e+00  -1.654135e-02 5.402086e-04 0.000000e+00  -1.660319e-02 2.780518e-04 0.000000e+00  -1.650985e-02 2.595118e-06 0.000000e+00  -1.625750e-02 -2.822752e-04 0.000000e+00  -1.584446e-02 -5.725275e-04 0.000000e+00  -1.527142e-02 -8.640030e-04 0.000000e+00  -1.454132e-02 -1.152561e-03 0.000000e+00  -1.365902e-02 -1.434224e-03 0.000000e+00  -1.263125e-02 -1.705177e-03 0.000000e+00  -1.146682e-02 -1.961767e-03 0.000000e+00  -1.017625e-02 -2.200619e-03 0.000000e+00  -8.771077e-03 -2.418730e-03 0.000000e+00  -7.264010e-03 -2.613435e-03 0.000000e+00  -5.669162e-03 -2.782354e-03 0.000000e+00  -4.001520e-03 -2.923468e-03 0.000000e+00  -2.276191e-03 -3.035153e-03 0.000000e+00  -5.086731e-04 -3.116115e-03 0.000000e+00  1.284661e-03 -3.165330e-03 0.000000e+00  3.087198e-03 -3.182098e-03 0.000000e+00  4.882857e-03 -3.166055e-03 0.000000e+00  6.655602e-03 -3.117130e-03 0.000000e+00  8.388857e-03 -3.035552e-03 0.000000e+00  1.006624e-02 -2.921901e-03 0.000000e+00  1.167235e-02 -2.777134e-03 0.000000e+00  1.319224e-02 -2.602600e-03 0.000000e+00  1.461092e-02 -2.400095e-03 0.000000e+00  1.591424e-02 -2.171896e-03 0.000000e+00  1.708970e-02 -1.920748e-03 0.000000e+00  1.812605e-02 -1.649875e-03 0.000000e+00  1.901296e-02 -1.362999e-03 0.000000e+00  1.974189e-02 -1.064275e-03 0.000000e+00  2.030692e-02 -7.581706e-04 0.000000e+00  2.070427e-02 -4.494031e-04 0.000000e+00  2.093207e-02 -1.428744e-04 0.000000e+00  2.099100e-02 1.565034e