<?xml version="1.0"?>
<VTKFile type="UnstructuredGrid"  version="0.1"  >
<UnstructuredGrid>
<Piece  NumberOfPoints="16641" NumberOfCells="32768">
<Points>
<DataArray  type="Float32"  NumberOfComponents="3"  format="ascii">0 0 0  0.0078125 0 0  0.015625 0 0  0.0234375 0 0  0.03125 0 0  0.0390625 0 0  0.046875 0 0  0.0546875 0 0  0.0625 0 0  0.0703125 0 0  0.078125 0 0  0.0859375 0 0  0.09375 0 0  0.101562 0 0  0.109375 0 0  0.117188 0 0  0.125 0 0  0.132812 0 0  0.140625 0 0  0.148438 0 0  0.15625 0 0  0.164062 0 0  0.171875 0 0  0.179688 0 0  0.1875 0 0  0.195312 0 0  0.203125 0 0  0.210938 0 0  0.21875 0 0  0.226562 0 0  0.234375 0 0  0.242188 0 0  0.25 0 0  0.257812 0 0  0.265625 0 0  0.273438 0 0  0.28125 0 0  0.289062 0 0  0.296875 0 0  0.304688 0 0  0.3125 0 0  0.320312 0 0  0.328125 0 0  0.335938 0 0  0.34375 0 0  0.351562 0 0  0.359375 0 0  0.367188 0 0  0.375 0 0  0.382812 0 0  0.390625 0 0  0.398438 0 0  0.40625 0 0  0.414062 0 0  0.421875 0 0  0.429688 0 0  0.4375 0 0  0.445312 0 0  0.453125 0 0  0.460938 0 0  0.46875 0 0  0.476562 0 0  0.484375 0 0  0.492188 0 0  0.5 0 0  0.507812 0 0  0.515625 0 0  0.523438 0 0  0.53125 0 0  0.539062 0 0  0.546875 0 0  0.554688 0 0  0.5625 0 0  0.570312 0 0  0.578125 0 0  0.585938 0 0  0.59375 0 0  0.601562 0 0  0.609375 0 0  0.617188 0 0  0.625 0 0  0.632812 0 0  0.640625 0 0  0.648438 0 0  0.65625 0 0  0.664062 0 0  0.671875 0 0  0.679688 0 0  0.6875 0 0  0.695312 0 0  0.703125 0 0  0.710938 0 0  0.71875 0 0  0.726562 0 0  0.734375 0 0  0.742188 0 0  0.75 0 0  0.757812 0 0  0.765625 0 0  0.773438 0 0  0.78125 0 0  0.789062 0 0  0.796875 0 0  0.804688 0 0  0.8125 0 0  0.820312 0 0  0.828125 0 0  0.835938 0 0  0.84375 0 0  0.851562 0 0  0.859375 0 0  0.867188 0 0  0.875 0 0  0.882812 0 0  0.890625 0 0  0.898438 0 0  0.90625 0 0  0.914062 0 0  0.921875 0 0  0.929688 0 0  0.9375 0 0  0.945312 0 0  0.953125 0 0  0.960938 0 0  0.96875 0 0  0.976562 0 0  0.984375 0 0  0.992188 0 0  1 0 0  0 0.0078125 0  0.0078125 0.0078125 0  0.015625 0.0078125 0  0.0234375 0.0078125 0  0.03125 0.0078125 0  0.0390625 0.0078125 0  0.046875 0.0078125 0  0.0546875 0.0078125 0  0.0625 0.0078125 0  0.0703125 0.0078125 0  0.078125 0.0078125 0  0.0859375 0.0078125 0  0.09375 0.0078125 0  0.101562 0.0078125 0  0.109375 0.0078125 0  0.117188 0.0078125 0  0.125 0.0078125 0  0.132812 0.0078125 0  0.140625 0.0078125 0  0.148438 0.0078125 0  0.15625 0.0078125 0  0.164062 0.0078125 0  0.171875 0.0078125 0  0.179688 0.0078125 0  0.1875 0.0078125 0  0.195312 0.0078125 0  0.203125 0.0078125 0  0.210938 0.0078125 0  0.21875 0.0078125 0  0.226562 0.0078125 0  0.234375 0.0078125 0  0.242188 0.0078125 0  0.25 0.0078125 0  0.257812 0.0078125 0  0.265625 0.0078125 0  0.273438 0.0078125 0  0.28125 0.0078125 0  0.289062 0.0078125 0  0.296875 0.0078125 0  0.304688 0.0078125 0  0.3125 0.0078125 0  0.320312 0.0078125 0  0.328125 0.0078125 0  0.335938 0.0078125 0  0.34375 0.0078125 0  0.351562 0.0078125 0  0.359375 0.0078125 0  0.367188 0.0078125 0  0.375 0.0078125 0  0.382812 0.0078125 0  0.390625 0.0078125 0  0.398438 0.0078125 0  0.40625 0.0078125 0  0.414062 0.0078125 0  0.421875 0.0078125 0  0.429688 0.0078125 0  0.4375 0.0078125 0  0.445312 0.0078125 0  0.453125 0.0078125 0  0.460938 0.0078125 0  0.46875 0.0078125 0  0.476562 0.0078125 0  0.484375 0.0078125 0  0.492188 0.0078125 0  0.5 0.0078125 0  0.507812 0.0078125 0  0.515625 0.0078125 0  0.523438 0.0078125 0  0.53125 0.0078125 0  0.539062 0.0078125 0  0.546875 0.0078125 0  0.554688 0.0078125 0  0.5625 0.0078125 0  0.570312 0.0078125 0  0.578125 0.0078125 0  0.585938 0.0078125 0  0.59375 0.0078125 0  0.601562 0.0078125 0  0.609375 0.0078125 0  0.617188 0.0078125 0  0.625 0.0078125 0  0.632812 0.0078125 0  0.640625 0.0078125 0  0.648438 0.0078125 0  0.65625 0.0078125 0  0.664062 0.0078125 0  0.671875 0.0078125 0  0.679688 0.0078125 0  0.6875 0.0078125 0  0.695312 0.0078125 0  0.703125 0.0078125 0  0.710938 0.0078125 0  0.71875 0.0078125 0  0.726562 0.0078125 0  0.734375 0.0078125 0  0.742188 0.0078125 0  0.75 0.0078125 0  0.757812 0.0078125 0  0.765625 0.0078125 0  0.773438 0.0078125 0  0.78125 0.0078125 0  0.789062 0.0078125 0  0.796875 0.0078125 0  0.804688 0.0078125 0  0.8125 0.0078125 0  0.820312 0.0078125 0  0.828125 0.0078125 0  0.835938 0.0078125 0  0.84375 0.0078125 0  0.851562 0.0078125 0  0.859375 0.0078125 0  0.867188 0.0078125 0  0.875 0.0078125 0  0.882812 0.0078125 0  0.890625 0.0078125 0  0.898438 0.0078125 0  0.90625 0.0078125 0  0.914062 0.0078125 0  0.921875 0.0078125 0  0.929688 0.0078125 0  0.9375 0.0078125 0  0.945312 0.0078125 0  0.953125 0.0078125 0  0.960938 0.0078125 0  0.96875 0.0078125 0  0.976562 0.0078125 0  0.984375 0.0078125 0  0.992188 0.0078125 0  1 0.0078125 0  0 0.015625 0  0.0078125 0.015625 0  0.015625 0.015625 0  0.0234375 0.015625 0  0.03125 0.015625 0  0.0390625 0.015625 0  0.046875 0.015625 0  0.0546875 0.015625 0  0.0625 0.015625 0  0.0703125 0.015625 0  0.078125 0.015625 0  0.0859375 0.015625 0  0.09375 0.015625 0  0.101562 0.015625 0  0.109375 0.015625 0  0.117188 0.015625 0  0.125 0.015625 0  0.132812 0.015625 0  0.140625 0.015625 0  0.148438 0.015625 0  0.15625 0.015625 0  0.164062 0.015625 0  0.171875 0.015625 0  0.179688 0.015625 0  0.1875 0.015625 0  0.195312 0.015625 0  0.203125 0.015625 0  0.210938 0.015625 0  0.21875 0.015625 0  0.226562 0.015625 0  0.234375 0.015625 0  0.242188 0.015625 0  0.25 0.015625 0  0.257812 0.015625 0  0.265625 0.015625 0  0.273438 0.015625 0  0.28125 0.015625 0  0.289062 0.015625 0  0.296875 0.015625 0  0.304688 0.015625 0  0.3125 0.015625 0  0.320312 0.015625 0  0.328125 0.015625 0  0.335938 0.015625 0  0.34375 0.015625 0  0.351562 0.015625 0  0.359375 0.015625 0  0.367188 0.015625 0  0.375 0.015625 0  0.382812 0.015625 0  0.390625 0.015625 0  0.398438 0.015625 0  0.40625 0.015625 0  0.414062 0.015625 0  0.421875 0.015625 0  0.429688 0.015625 0  0.4375 0.015625 0  0.445312 0.015625 0  0.453125 0.015625 0  0.460938 0.015625 0  0.46875 0.015625 0  0.476562 0.015625 0  0.484375 0.015625 0  0.492188 0.015625 0  0.5 0.015625 0  0.507812 0.015625 0  0.515625 0.015625 0  0.523438 0.015625 0  0.53125 0.015625 0  0.539062 0.015625 0  0.546875 0.015625 0  0.554688 0.015625 0  0.5625 0.015625 0  0.570312 0.015625 0  0.578125 0.015625 0  0.585938 0.015625 0  0.59375 0.015625 0  0.601562 0.015625 0  0.609375 0.015625 0  0.617188 0.015625 0  0.625 0.015625 0  0.632812 0.015625 0  0.640625 0.015625 0  0.648438 0.015625 0  0.65625 0.015625 0  0.664062 0.015625 0  0.671875 0.015625 0  0.679688 0.015625 0  0.6875 0.015625 0  0.695312 0.015625 0  0.703125 0.015625 0  0.710938 0.015625 0  0.71875 0.015625 0  0.726562 0.015625 0  0.734375 0.015625 0  0.742188 0.015625 0  0.75 0.015625 0  0.757812 0.015625 0  0.765625 0.015625 0  0.773438 0.015625 0  0.78125 0.015625 0  0.789062 0.015625 0  0.796875 0.015625 0  0.804688 0.015625 0  0.8125 0.015625 0  0.820312 0.015625 0  0.828125 0.015625 0  0.835938 0.015625 0  0.84375 0.015625 0  0.851562 0.015625 0  0.859375 0.015625 0  0.867188 0.015625 0  0.875 0.015625 0  0.882812 0.015625 0  0.890625 0.015625 0  0.898438 0.015625 0  0.90625 0.015625 0  0.914062 0.015625 0  0.921875 0.015625 0  0.929688 0.015625 0  0.9375 0.015625 0  0.945312 0.015625 0  0.953125 0.015625 0  0.960938 0.015625 0  0.96875 0.015625 0  0.976562 0.015625 0  0.984375 0.015625 0  0.992188 0.015625 0  1 0.015625 0  0 0.0234375 0  0.0078125 0.0234375 0  0.015625 0.0234375 0  0.0234375 0.0234375 0  0.03125 0.0234375 0  0.0390625 0.0234375 0  0.046875 0.0234375 0  0.0546875 0.0234375 0  0.0625 0.0234375 0  0.0703125 0.0234375 0  0.078125 0.0234375 0  0.0859375 0.0234375 0  0.09375 0.0234375 0  0.101562 0.0234375 0  0.109375 0.0234375 0  0.117188 0.0234375 0  0.125 0.0234375 0  0.132812 0.0234375 0  0.140625 0.0234375 0  0.148438 0.0234375 0  0.15625 0.0234375 0  0.164062 0.0234375 0  0.171875 0.0234375 0  0.179688 0.0234375 0  0.1875 0.0234375 0  0.195312 0.0234375 0  0.203125 0.0234375 0  0.210938 0.0234375 0  0.21875 0.0234375 0  0.226562 0.0234375 0  0.234375 0.0234375 0  0.242188 0.0234375 0  0.25 0.0234375 0  0.257812 0.0234375 0  0.265625 0.0234375 0  0.273438 0.0234375 0  0.28125 0.0234375 0  0.289062 0.0234375 0  0.296875 0.0234375 0  0.304688 0.0234375 0  0.3125 0.0234375 0  0.320312 0.0234375 0  0.328125 0.0234375 0  0.335938 0.0234375 0  0.34375 0.0234375 0  0.351562 0.0234375 0  0.359375 0.0234375 0  0.367188 0.0234375 0  0.375 0.0234375 0  0.382812 0.0234375 0  0.390625 0.0234375 0  0.398438 0.0234375 0  0.40625 0.0234375 0  0.414062 0.0234375 0  0.421875 0.0234375 0  0.429688 0.0234375 0  0.4375 0.0234375 0  0.445312 0.0234375 0  0.453125 0.0234375 0  0.460938 0.0234375 0  0.46875 0.0234375 0  0.476562 0.0234375 0  0.484375 0.0234375 0  0.492188 0.0234375 0  0.5 0.0234375 0  0.507812 0.0234375 0  0.515625 0.0234375 0  0.523438 0.0234375 0  0.53125 0.0234375 0  0.539062 0.0234375 0  0.546875 0.0234375 0  0.554688 0.0234375 0  0.5625 0.0234375 0  0.570312 0.0234375 0  0.578125 0.0234375 0  0.585938 0.0234375 0  0.59375 0.0234375 0  0.601562 0.0234375 0  0.609375 0.0234375 0  0.617188 0.0234375 0  0.625 0.0234375 0  0.632812 0.0234375 0  0.640625 0.0234375 0  0.648438 0.0234375 0  0.65625 0.0234375 0  0.664062 0.0234375 0  0.671875 0.0234375 0  0.679688 0.0234375 0  0.6875 0.0234375 0  0.695312 0.0234375 0  0.703125 0.0234375 0  0.710938 0.0234375 0  0.71875 0.0234375 0  0.726562 0.0234375 0  0.734375 0.0234375 0  0.742188 0.0234375 0  0.75 0.0234375 0  0.757812 0.0234375 0  0.765625 0.0234375 0  0.773438 0.0234375 0  0.78125 0.0234375 0  0.789062 0.0234375 0  0.796875 0.0234375 0  0.804688 0.0234375 0  0.8125 0.0234375 0  0.820312 0.0234375 0  0.828125 0.0234375 0  0.835938 0.0234375 0  0.84375 0.0234375 0  0.851562 0.0234375 0  0.859375 0.0234375 0  0.867188 0.0234375 0  0.875 0.0234375 0  0.882812 0.0234375 0  0.890625 0.0234375 0  0.898438 0.0234375 0  0.90625 0.0234375 0  0.914062 0.0234375 0  0.921875 0.0234375 0  0.929688 0.0234375 0  0.9375 0.0234375 0  0.945312 0.0234
[...]
<PointData  Vectors="u"> 
<DataArray  type="Float32"  Name="u"  NumberOfComponents="3" format="ascii">2.977998e-12 1.162112e-12 0.000000e+00  -1.213796e-12 1.660069e-12 0.000000e+00  2.742709e-12 -5.991052e-12 0.000000e+00  5.308565e-12 -1.364156e-11 0.000000e+00  2.141589e-11 -2.576066e-11 0.000000e+00  5.228123e-11 -3.922962e-11 0.000000e+00  9.943450e-11 -5.249787e-11 0.000000e+00  1.620388e-10 -6.452412e-11 0.000000e+00  2.382153e-10 -7.467284e-11 0.000000e+00  3.255800e-10 -8.263947e-11 0.000000e+00  4.215322e-10 -8.831929e-11 0.000000e+00  5.234048e-10 -9.172334e-11 0.000000e+00  6.287093e-10 -9.294401e-11 0.000000e+00  7.347334e-10 -9.208744e-11 0.000000e+00  8.393706e-10 -8.933865e-11 0.000000e+00  9.404384e-10 -8.486867e-11 0.000000e+00  1.035908e-09 -7.886133e-11 0.000000e+00  1.124218e-09 -7.152826e-11 0.000000e+00  1.204022e-09 -6.307895e-11 0.000000e+00  1.273919e-09 -5.370711e-11 0.000000e+00  1.332793e-09 -4.361226e-11 0.000000e+00  1.380087e-09 -3.300209e-11 0.000000e+00  1.415380e-09 -2.206697e-11 0.000000e+00  1.438103e-09 -1.098251e-11 0.000000e+00  1.448030e-09 7.242689e-14 0.000000e+00  1.445504e-09 1.092949e-11 0.000000e+00  1.430864e-09 2.144708e-11 0.000000e+00  1.404250e-09 3.149074e-11 0.000000e+00  1.366187e-09 4.092379e-11 0.000000e+00  1.317685e-09 4.963569e-11 0.000000e+00  1.259596e-09 5.754701e-11 0.000000e+00  1.192563e-09 6.457630e-11 0.000000e+00  1.117639e-09 7.064083e-11 0.000000e+00  1.036216e-09 7.569408e-11 0.000000e+00  9.493745e-10 7.971990e-11 0.000000e+00  8.580163e-10 8.269250e-11 0.000000e+00  7.634666e-10 8.458610e-11 0.000000e+00  6.672078e-10 8.541438e-11 0.000000e+00  5.702773e-10 8.521599e-11 0.000000e+00  4.735980e-10 8.401553e-11 0.000000e+00  3.785101e-10 8.183959e-11 0.000000e+00  2.863270e-10 7.875050e-11 0.000000e+00  1.978278e-10 7.482651e-11 0.000000e+00  1.137528e-10 7.013138e-11 0.000000e+00  3.523290e-11 6.473335e-11 0.000000e+00  -3.678247e-11 5.872677e-11 0.000000e+00  -1.019104e-10 5.221076e-11 0.000000e+00  -1.597385e-10 4.527313e-11 0.000000e+00  -2.095132e-10 3.800887e-11 0.000000e+00  -2.507614e-10 3.052545e-11 0.000000e+00  -2.835476e-10 2.292360e-11 0.000000e+00  -3.078617e-10 1.529852e-11 0.000000e+00  -3.234221e-10 7.754863e-12 0.000000e+00  -3.302578e-10 3.947444e-13 0.000000e+00  -3.288487e-10 -6.696762e-12 0.000000e+00  -3.195867e-10 -1.343330e-11 0.000000e+00  -3.026776e-10 -1.971758e-11 0.000000e+00  -2.785984e-10 -2.546883e-11 0.000000e+00  -2.481418e-10 -3.063097e-11 0.000000e+00  -2.120327e-10 -3.514039e-11 0.000000e+00  -1.709040e-10 -3.892238e-11 0.000000e+00  -1.255606e-10 -4.192927e-11 0.000000e+00  -7.695687e-11 -4.414215e-11 0.000000e+00  -2.602572e-11 -4.553035e-11 0.000000e+00  2.629797e-11 -4.605341e-11 0.000000e+00  7.904552e-11 -4.570324e-11 0.000000e+00  1.312759e-10 -4.450049e-11 0.000000e+00  1.820105e-10 -4.245295e-11 0.000000e+00  2.301834e-10 -3.956109e-11 0.000000e+00  2.748451e-10 -3.585711e-11 0.000000e+00  3.152411e-10 -3.139793e-11 0.000000e+00  3.505236e-10 -2.622983e-11 0.000000e+00  3.796883e-10 -2.039516e-11 0.000000e+00  4.019801e-10 -1.396125e-11 0.000000e+00  4.169779e-10 -7.012850e-12 0.000000e+00  4.241299e-10 3.708154e-13 0.000000e+00  4.226808e-10 8.110798e-12 0.000000e+00  4.122118e-10 1.611506e-11 0.000000e+00  3.927338e-10 2.428372e-11 0.000000e+00  3.641213e-10 3.251535e-11 0.000000e+00  3.260201e-10 4.070574e-11 0.000000e+00  2.784351e-10 4.875279e-11 0.000000e+00  2.218433e-10 5.655708e-11 0.000000e+00  1.566182e-10 6.401004e-11 0.000000e+00  8.289774e-11 7.099866e-11 0.000000e+00  1.126009e-12 7.742815e-11 0.000000e+00  -8.779239e-11 8.321627e-11 0.000000e+00  -1.829879e-10 8.826530e-11 0.000000e+00  -2.838216e-10 9.247331e-11 0.000000e+00  -3.894748e-10 9.577091e-11 0.000000e+00  -4.987282e-10 9.810903e-11 0.000000e+00  -6.103037e-10 9.941956e-11 0.000000e+00  -7.231471e-10 9.963257e-11 0.000000e+00  -8.362079e-10 9.872051e-11 0.000000e+00  -9.481323e-10 9.668060e-11 0.000000e+00  -1.057405e-09 9.349140e-11 0.000000e+00  -1.162736e-09 8.913378e-11 0.000000e+00  -1.263052e-09 8.363435e-11 0.000000e+00  -1.357095e-09 7.704487e-11 0.000000e+00  -1.443355e-09 6.940311e-11 0.000000e+00  -1.520562e-09 6.075415e-11 0.000000e+00  -1.587876e-09 5.118459e-11 0.000000e+00  -1.644388e-09 4.080244e-11 0.000000e+00  -1.688880e-09 2.971004e-11 0.000000e+00  -1.720407e-09 1.802171e-11 0.000000e+00  -1.738626e-09 5.881455e-12 0.000000e+00  -1.743224e-09 -6.552350e-12 0.000000e+00  -1.733575e-09 -1.911657e-11 0.000000e+00  -1.709366e-09 -3.163382e-11 0.000000e+00  -1.670986e-09 -4.391471e-11 0.000000e+00  -1.618923e-09 -5.576448e-11 0.000000e+00  -1.553405e-09 -6.697404e-11 0.000000e+00  -1.475007e-09 -7.732230e-11 0.000000e+00  -1.385013e-09 -8.659724e-11 0.000000e+00  -1.284843e-09 -9.459107e-11 0.000000e+00  -1.175750e-09 -1.010775e-10 0.000000e+00  -1.059341e-09 -1.058288e-10 0.000000e+00  -9.378309e-10 -1.086492e-10 0.000000e+00  -8.135806e-10 -1.093599e-10 0.000000e+00  -6.888762e-10 -1.077757e-10 0.000000e+00  -5.662876e-10 -1.037406e-10 0.000000e+00  -4.487874e-10 -9.717027e-11 0.000000e+00  -3.394281e-10 -8.805451e-11 0.000000e+00  -2.411739e-10 -7.643935e-11 0.000000e+00  -1.570304e-10 -6.247827e-11 0.000000e+00  -9.013523e-11 -4.678812e-11 0.000000e+00  -4.312615e-11 -3.039640e-11 0.000000e+00  -1.790622e-11 -1.799097e-11 0.000000e+00  -1.330392e-11 -1.792503e-11 0.000000e+00  -4.698030e-12 1.964479e-12 0.000000e+00  5.565417e-08 -5.546307e-08 0.000000e+00  5.367841e-08 2.366047e-08 0.000000e+00  -1.514414e-07 1.524214e-07 0.000000e+00  -6.072225e-07 2.892604e-07 0.000000e+00  -1.312710e-06 4.169706e-07 0.000000e+00  -2.244667e-06 5.278284e-07 0.000000e+00  -3.368965e-06 6.186211e-07 0.000000e+00  -4.646986e-06 6.883307e-07 0.000000e+00  -6.038850e-06 7.370822e-07 0.000000e+00  -7.505234e-06 7.656473e-07 0.000000e+00  -9.008453e-06 7.751853e-07 0.000000e+00  -1.051315e-05 7.670919e-07 0.000000e+00  -1.199051e-05 7.432270e-07 0.000000e+00  -1.339950e-05 7.043597e-07 0.000000e+00  -1.472030e-05 6.528107e-07 0.000000e+00  -1.594078e-05 5.908489e-07 0.000000e+00  -1.703243e-05 5.196643e-07 0.000000e+00  -1.796613e-05 4.405322e-07 0.000000e+00  -1.873984e-05 3.556656e-07 0.000000e+00  -1.935837e-05 2.671203e-07 0.000000e+00  -1.980232e-05 1.760439e-07 0.000000e+00  -2.005233e-05 8.362311e-08 0.000000e+00  -2.012225e-05 -8.323236e-09 0.000000e+00  -2.003121e-05 -9.818707e-08 0.000000e+00  -1.976792e-05 -1.850501e-07 0.000000e+00  -1.932139e-05 -2.679887e-07 0.000000e+00  -1.871765e-05 -3.457382e-07 0.000000e+00  -1.798614e-05 -4.172667e-07 0.000000e+00  -1.712144e-05 -4.819934e-07 0.000000e+00  -1.611849e-05 -5.393517e-07 0.000000e+00  -1.501087e-05 -5.886948e-07 0.000000e+00  -1.383367e-05 -6.296064e-07 0.000000e+00  -1.258452e-05 -6.618773e-07 0.000000e+00  -1.126139e-05 -6.853156e-07 0.000000e+00  -9.900629e-06 -6.998751e-07 0.000000e+00  -8.538237e-06 -7.057183e-07 0.000000e+00  -7.172116e-06 -7.029745e-07 0.000000e+00  -5.800481e-06 -6.917807e-07 0.000000e+00  -4.458017e-06 -6.726085e-07 0.000000e+00  -3.177471e-06 -6.461015e-07 0.000000e+00  -1.954675e-06 -6.126433e-07 0.000000e+00  -7.858576e-07 -5.726056e-07 0.000000e+00  2.995440e-07 -5.268484e-07 0.000000e+00  1.275278e-06 -4.763583e-07 0.000000e+00  2.149118e-06 -4.216554e-07 0.000000e+00  2.928200e-06 -3.632237e-07 0.000000e+00  3.590798e-06 -3.021566e-07 0.000000e+00  4.119225e-06 -2.396260e-07 0.000000e+00  4.525410e-06 -1.761569e-07 0.000000e+00  4.820232e-06 -1.122144e-07 0.000000e+00  4.990893e-06 -4.896574e-08 0.000000e+00  5.029094e-06 1.239108e-08 0.000000e+00  4.950449e-06 7.145195e-08 0.000000e+00  4.768955e-06 1.278929e-07 0.000000e+00  4.480750e-06 1.806207e-07 0.000000e+00  4.086550e-06 2.285533e-07 0.000000e+00  3.604272e-06 2.715135e-07 0.000000e+00  3.049534e-06 3.094170e-07 0.000000e+00  2.426349e-06 3.413659e-07 0.000000e+00  1.743079e-06 3.665067e-07 0.000000e+00  1.017845e-06 3.849627e-07 0.000000e+00  2.657470e-07 3.969536e-07 0.000000e+00  -5.031912e-07 4.018608e-07 0.000000e+00  -1.275080e-06 3.991336e-07 0.000000e+00  -2.034106e-06 3.892287e-07 0.000000e+00  -2.768169e-06 3.726918e-07 0.000000e+00  -3.463597e-06 3.492246e-07 0.000000e+00  -4.103492e-06 3.186086e-07 0.000000e+00  -4.676948e-06 2.816225e-07 0.000000e+00  -5.177338e-06 2.391139e-07 0.000000e+00  -5.589848e-06 1.910997e-07 0.000000e+00  -5.897145e-06 1.376779e-07 0.000000e+00  -6.095552e-06 7.989065e-08 0.000000e+00  -6.186023e-06 1.881892e-08 0.000000e+00  -6.154894e-06 -4.525502e-08 0.000000e+00  -5.986665e-06 -1.119769e-07 0.000000e+00  -5.686590e-06 -1.801408e-07 0.000000e+00  -5.264605e-06 -2.485429e-07 0.000000e+00  -4.709935e-06 -3.167246e-07 0.000000e+00  -4.010569e-06 -3.841725e-07 0.000000e+00  -3.181454e-06 -4.496522e-07 0.000000e+00  -2.241914e-06 -5.119799e-07 0.000000e+00  -1.184991e-06 -5.706391e-07 0.000000e+00  -2.930996e-09 -6.250814e-07 0.000000e+00  1.280017e-06 -6.742025e-07 0.000000e+00  2.635935e-06 -7.170002e-07 0.000000e+00  4.068044e-06 -7.530353e-07 0.000000e+00  5.580091e-06 -7.818603e-07 0.000000e+00  7.140203e-06 -8.026660e-07 0.000000e+00  8.713947e-06 -8.147963e-07 0.000000e+00  1.030194e-05 -8.180222e-07 0.000000e+00  1.190523e-05 -8.121261e-07 0.000000e+00  1.348725e-05 -7.967466e-07 0.000000e+00  1.501035e-05 -7.717190e-07 0.000000e+00  1.647465e-05 -7.371349e-07 0.000000e+00  1.788070e-05 -6.931088e-07 0.000000e+00  1.919125e-05 -6.398441e-07 0.000000e+00  2.036972e-05 -5.777729e-07 0.000000e+00  2.141851e-05 -5.073747e-07 0.000000e+00  2.234055e-05 -4.291502e-07 0.000000e+00  2.310258e-05 -3.439301e-07 0.000000e+00  2.367400e-05 -2.527875e-07 0.000000e+00  2.406255e-05 -1.565972e-07 0.000000e+00  2.427656e-05 -5.623800e-08 0.000000e+00  2.429171e-05 4.684131e-08 0.000000e+00  2.408825e-05 1.509569e-07 0.000000e+00  2.368216e-05 2.549020e-07 0.000000e+00  2.308984e-05 3.574983e-07 0.000000e+00  2.230041e-05 4.567680e-07 0.000000e+00  2.130933e-05 5.505312e-07 0.000000e+00  2.014285e-05 6.373849e-07 0.000000e+00  1.882721e-05 7.159987e-07 0.000000e+00  1.736845e-05 7.840403e-07 0.000000e+00  1.578025e-05 8.390416e-07 0.000000e+00  1.409975e-05 8.796135e-07 0.000000e+00  1.236334e-05 9.044904e-07 0.000000e+00  1.059553e-05 9.112793e-07 0.000000e+00  8.828900e-06 8.976028e-07 0.000000e+00  7.109750e-06 8.624728e-07 0.000000e+00  5.482283e-06 8.051565e-07 0.000000e+00  3.986875e-06 7.240527e-07 0.000000e+00  2.669330e-06 6.183226e-07 0.000000e+00  1.575371e-06 4.895613e-07 0.000000e+00  7.422462e-07 3.415466e-07 0.000000e+00  1.984932e-07 1.822809e-07 0.000000e+00  -5.108031e-08 3.213380e-08 0.000000e+00  -6.057282e-08 -6.071204e-08 0.000000e+00  -1.368396e-11 -1.214520e-11 0.000000e+00  6.590120e-13 -2.653211e-12 0.000000e+00  -2.212584e-08 -5.440507e-08 0.000000e+00  -2.469430e-07 2.495646e-07 0.000000e+00  -8.279351e-07 6.987008e-07 0.000000e+00  -1.822835e-06 1.179978e-06 0.000000e+00  -3.233591e-06 1.635275e-06 0.000000e+00  -5.027163e-06 2.035410e-06 0.000000e+00  -7.150760e-06 2.366445e-06 0.000000e+00  -9.541401e-06 2.622680e-06 0.000000e+00  -1.213172e-05 2.803107e-06 0.000000e+00  -1.485368e-05 2.909528e-06 0.000000e+00  -1.764092e-05 2.945501e-06 0.000000e+00  -2.043034e-05 2.915721e-06 0.000000e+00  -2.317078e-05 2.826757e-06 0.000000e+00  -2.578551e-05 2.681204e-06 0.000000e+00  -2.823951e-05 2.487647e-06 0.000000e+00  -3.051188e-05 2.254517e-06 0.000000e+00  -3.254859e-05 1.986166e-06 0.000000e+00  -3.429413e-05 1.687347e-06 0.000000e+00  -3.574575e-05 1.366446e-06 0.000000e+00  -3.691335e-05 1.031227e-06 0.000000e+00  -3.775920e-05 6.859830e-07 0.000000e+00  -3.824538e-05 3.352234e-07 0.000000e+00  -3.839852e-05 -1.409091e-08 0.000000e+00  -3.825512e-05 -3.558459e-07 0.000000e+00  -3.779227e-05 -6.865761e-07 0.000000e+00  -3.698743e-05 -1.002732e-06 0.000000e+00  -3.589003e-05 -1.299437e-06 0.000000e+00  -3.455590e-05 -1.572754e-06 0.000000e+00  -3.297299e-05 -1.820479e-06 0.000000e+00  -3.112985e-05 -2.040401e-06 0.000000e+00  -2.909015e-05 -2.229997e-06 0.000000e+00  -2.692040e-05 -2.387674e-06 0.000000e+00  -2.461430e-05 -2.512630e-06 0.000000e+00  -2.216623e-05 -2.604076e-06 0.000000e+00  -1.964516e-05 -2.661787e-06 0.000000e+00  -1.711945e-05 -2.686384e-06 0.000000e+00  -1.458346e-05 -2.678347e-06 0.000000e+00  -1.203223e-05 -2.638140e-06 0.000000e+00  -9.531763e-06 -2.567531e-06 0.000000e+00  -7.144408e-06 -2.468985e-06 0.000000e+00  -4.860866e-06 -2.343947e-06 0.000000e+00  -2.672730e-06 -2.193779e-06 0.000000e+00  -6.362661e-07 -2.021749e-06 0.000000e+00  1.198314e-06 -1.831644e-06 0.000000e+00  2.846805e-06 -1.625422e-06 0.000000e+00  4.323614e-06 -1.404880e-06 0.000000e+00  5.586901e-06 -1.174196e-06 0.000000e+00  6.602529e-06 -9.378706e-07 0.000000e+00  7.393795e-06 -6.978776e-07 0.000000e+00  7.981805e-06 -4.559467e-07 0.000000e+00  8.341496e-06 -2.165531e-07 0.000000e+00  8.456410e-06 1.569653e-08 0.000000e+00  8.356458e-06 2.392960e-07 0.000000e+00  8.068271e-06 4.530503e-07 0.000000e+00  7.583638e-06 6.527534e-07 0.000000e+00  6.903144e-06 8.342394e-07 0.000000e+00  6.060717e-06 9.968748e-07 0.000000e+00  5.085711e-06 1.140377e-06 0.000000e+00  3.984842e-06 1.261274e-06 0.000000e+00  2.773209e-06 1.356276e-06 0.000000e+00  1.484831e-06 1.425903e-06 0.000000e+00  1.477884e-07 1.471028e-06 0.000000e+00  -1.219733e-06 1.489242e-06 0.000000e+00  -2.592045e-06 1.478411e-06 0.000000e+00  -3.939742e-06 1.440337e-06 0.000000e+00  -5.240644e-06 1.377132e-06 0.000000e+00  -6.469489e-06 1.287605e-06 0.000000e+00  -7.594699e-06 1.170897e-06 0.000000e+00  -8.596328e-06 1.030041e-06 0.000000e+00  -9.462707e-06 8.682961e-07 0.000000e+00  -1.016616e-05 6.856719e-07 0.000000e+00  -1.067402e-05 4.825231e-07 0.000000e+00  -1.098013e-05 2.628874e-07 0.000000e+00  -1.108723e-05 3.090768e-08 0.000000e+00  -1.096949e-05 -2.123973e-07 0.000000e+00  -1.059743e-05 -4.656898e-07 0.000000e+00  -9.981773e-06 -7.243115e-07 0.000000e+00  -9.142250e-06 -9.836622e-07 0.000000e+00  -8.058151e-06 -1.242052e-06 0.000000e+00  -6.706212e-06 -1.497534e-06 0.000000e+00  -5.115460e-06 -1.745350e-06 0.000000e+00  -3.323289e-06 -1.980989e-06 0.000000e+00  -1.315813e-06 -2.202544e-06 0.000000e+00  9.225430e-07 -2.407932e-06 0.000000e+00  3.345276e-06 -2.592905e-06 0.000000e+00  5.898894e-06 -2.753660e-06 0.000000e+00  8.590602e-06 -2.888587e-06 0.000000e+00  1.142875e-05 -2.995989e-06 0.000000e+00  1.435258e-05 -3.072756e-06 0.000000e+00  1.729646e-05 -3.116424e-06 0.000000e+00  2.026303e-05 -3.126184e-06 0.000000e+00  2.325584e-05 -3.101213e-06 0.000000e+00  2.620541e-05 -3.040127e-06 0.000000e+00  2.904024e-05 -2.942350e-06 0.000000e+00  3.176226e-05 -2.808289e-06 0.000000e+00  3.437433e-05 -2.638387e-06 0.000000e+00  3.680578e-05 -2.433428e-06 0.000000e+00  3.898732e-05 -2.195119e-06 0.000000e+00  4.092532e-05 -1.925336e-06 0.000000e+00  4.262717e-05 -1.625987e-06 0.000000e+00  4.402986e-05 -1.300257e-06 0.000000e+00  4.507540e-05 -9.522956e-07 0.000000e+00  4.578025e-05 -5.854640e-07 0.000000e+00  4.616190e-05 -2.030980e-07 0.000000e+00  4.617411e-05 1.892627e-07 0.000000e+00  4.577934e-05 5.851611e-07 0.000000e+00  4.500931e-05 9.800087e-07 0.000000e+00  4.389639e-05 1.369356e-06 0.000000e+00  4.241945e-05 1.745674e-06 0.000000e+00  4.056927e-05 2.100671e-06 0.000000e+00  3.839634e-05 2.429087e-06 0.000000e+00  3.595090e-05 2.725955e-06 0.000000e+00  3.324303e-05 2.982486e-06 0.000000e+00  3.029691e-05 3.189437e-06 0.000000e+00  2.718237e-05 3.341775e-06 0.000000e+00  2.396736e-05 3.434968e-06 0.000000e+00  2.069502e-05 3.460275e-06 0.000000e+00  1.742280e-05 3.409229e-06 0.000000e+00  1.423498e-05 3.278844e-06 0.000000e+00  1.121074e-05 3.067267e-06 0.000000e+00  8.418341e-06 2.769737e-06 0.000000e+00  5.934010e-06 2.384944e-06 0.000000e+00  3.833773e-06 1.921149e-06 0.000000e+00  2.175705e-06 1.394676e-06 0.000000e+00  9.989615e-07 8.357179e-07 0.000000e+00  3.075717e-07 3.103357e-07 0.000000e+00  3.161953e-08 -5.086351e-08 0.000000e+00  -1.348184e-11 -1.608089e-11 0.000000e+00  4.186665e-12 -3.974991e-12 0.000000e+00  -1.494946e-07 1.476480e-07 0.000000e+00  -6.941869e-07 8.302964e-07 0.000000e+00  -1.741078e-06 1.744283e-06 0.000000e+00  -3.330529e-06 2.712116e-06 0.000000e+00  -5.455522e-06 3.631541e-06 0.000000e+00  -8.073232e-06 4.445378e-06 0.000000e+00  -1.111780e-05 5.123212e-06 0.000000e+00  -1.450954e-05 5.650732e-06 0.000000e+00  -1.816173e-05 6.023563e-06 0.000000e+00  -2.198535e-05 6.243638e-06 0.000000e+00  -2.589244e-05 6.317020e-06 0.000000e+00  -2.979848e-05 6.252545e-06 0.000000e+00  -3.363555e-05 6.063350e-06 0.000000e+00  -3.729580e-05 5.754223e-06 0.000000e+00  -4.073332e-05 5.343020e-06 0.000000e+00  -4.392152e-05 4.847425e-06 0.000000e+00  -4.678368e-05 4.276396e-06 0.000000e+00  -4.924056e-05 3.639821e-06 0.000000e+00  -5.129003e-05 2.955542e-06 0.000000e+00  -5.294765e-05 2.240119e-06 0.000000e+00  -5.415850e-05 1.502608e-06 0.000000e+00  -5.486706e-05 7.525720e-07 0.000000e+00  -5.511199e-05 4.957815e-09 0.000000e+00  -5.494587e-05 -7.271004e-07 0.000000e+00  -5.433404e-05 -1.436215e-06 0.000000e+00  -5.324225e-05 -2.114784e-06 0.000000e+00  -5.174107e-05 -2.752273e-06 0.000000e+00  -4.991023e-05 -3.340183e-06 0.000000e+00  -4.773014e-05 -3.873774e-06 0.000000e+00  -4.518204e-05 -4.348264e-06 0.000000e+00  -4.235669e-05 -4.758159e-06 0.000000e+00  -3.934886e-05 -5.099994e-06 0.000000e+00  -3.614713e-05 -5.372003e-06 0.000000e+00  -3.274104e-05 -5.572422e-06 0.000000e+00  -2.922898e-05 -5.700712e-06 0.000000e+00  -2.570845e-05 -5.758181e-06 0.000000e+00  -2.216913e-05 -5.745796e-06 0.000000e+00  -1.860177e-05 -5.664468e-06 0.000000e+00  -1.510073e-05 -5.517963e-06 0.000000e+00  -1.175517e-05 -5.311582e-06 0.000000e+00  -8.549885e-06 -5.048351e-06 0.000000e+00  -5.471149e-06 -4.731102e-06 0.000000e+00  -2.599715e-06 -4.366861e-06 0.000000e+00  -7.690131e-09 -3.963793e-06 0.000000e+00  2.328902e-06 -3.526025e-06 0.000000e+00  4.431832e-06 -3.057316e-06 0.000000e+00  6.240624e-06 -2.566680e-06 0.000000e+00  7.705845e-06 -2.063845e-06 0.000000e+00  8.861637e-06 -1.552963e-06 0.000000e+00  9.738756e-06 -1.037648e-06 0.000000e+00  1.030041e-05 -5.275782e-07 0.000000e+00  1.052218e-05 -3.273127e-08 0.000000e+00  1.044710e-05 4.437511e-07 0.000000e+00  1.011325e-05 8.994070e-07 0.000000e+00  9.507725e-06 1.325117e-06 0.000000e+00  8.630288e-06 1.711837e-06 0.000000e+00  7.529209e-06 2.058307e-06 0.000000e+00  6.245959e-06 2.364029e-06 0.000000e+00  4.788866e-06 2.621450e-06 0.000000e+00  3.178393e-06 2.823399e-06 0.000000e+00  1.462520e-06 2.971103e-06 0.000000e+00  -3.195047e-07 3.066550e-06 0.000000e+00  -2.142915e-06 3.104461e-06 0.000000e+00  -3.972027e-06 3.080154e-06 0.000000e+00  -5.765754e-06 2.997610e-06 0.000000e+00  -7.493556e-06 2.861481e-06 0.000000e+00  -9.120360e-06 2.669103e-06 0.000000e+00  -1.060184e-05 2.418537e-06 0.000000e+00  -1.191060e-05 2.116406e-06 0.000000e+00  -1.303123e-05 1.769825e-06 0.000000e+00  -1.392489e-05 1.378708e-06 0.000000e+00  -1.454534e-05 9.437251e-07 0.000000e+00  -1.488490e-05 4.736572e-07 0.000000e+00  -1.494873e-05 -2.250107e-08 0.000000e+00  -1.470020e-05 -5.426628e-07 0.000000e+00  -1.409711e-05 -1.084044e-06 0.000000e+00  -1.315583e-05 -1.636544e-06 0.000000e+00  -1.190563e-05 -2.190206e-06 0.000000e+00  -1.031661e-05 -2.741504e-06 0.000000e+00  -8.354960e-06 -3.286339e-06 0.000000e+00  -6.062938e-06 -3.814420e-06 0.000000e+00  -3.494809e-06 -4.316012e-06 0.000000e+00  -6.298219e-07 -4.787119e-06 0.000000e+00  2.555439e-06 -5.223354e-06 0.000000e+00  5.994034e-06 -5.615544e-06 0.000000e+00  9.609032e-06 -5.955514e-06 0.000000e+00  1.341223e-05 -6.239905e-06 0.000000e+00  1.741727e-05 -6.465148e-06 0.000000e+00  2.153715e-05 -6.624559e-06 0.000000e+00  2.567797e-05 -6.712866e-06 0.000000e+00  2.984549e-05 -6.728426e-06 0.000000e+00  3.404693e-05 -6.669547e-06 0.000000e+00  3.818314e-05 -6.533277e-06 0.000000e+00  4.215208e-05 -6.318432e-06 0.000000e+00  4.595888e-05 -6.025974e-06 0.000000e+00  4.961004e-05 -5.656905e-06 0.000000e+00  5.300486e-05 -5.212959e-06 0.00000