<?xml version="1.0"?>
<VTKFile type="UnstructuredGrid"  version="0.1"  >
<UnstructuredGrid>
<Piece  NumberOfPoints="16641" NumberOfCells="32768">
<Points>
<DataArray  type="Float32"  NumberOfComponents="3"  format="ascii">0 0 0  0.0078125 0 0  0.015625 0 0  0.0234375 0 0  0.03125 0 0  0.0390625 0 0  0.046875 0 0  0.0546875 0 0  0.0625 0 0  0.0703125 0 0  0.078125 0 0  0.0859375 0 0  0.09375 0 0  0.101562 0 0  0.109375 0 0  0.117188 0 0  0.125 0 0  0.132812 0 0  0.140625 0 0  0.148438 0 0  0.15625 0 0  0.164062 0 0  0.171875 0 0  0.179688 0 0  0.1875 0 0  0.195312 0 0  0.203125 0 0  0.210938 0 0  0.21875 0 0  0.226562 0 0  0.234375 0 0  0.242188 0 0  0.25 0 0  0.257812 0 0  0.265625 0 0  0.273438 0 0  0.28125 0 0  0.289062 0 0  0.296875 0 0  0.304688 0 0  0.3125 0 0  0.320312 0 0  0.328125 0 0  0.335938 0 0  0.34375 0 0  0.351562 0 0  0.359375 0 0  0.367188 0 0  0.375 0 0  0.382812 0 0  0.390625 0 0  0.398438 0 0  0.40625 0 0  0.414062 0 0  0.421875 0 0  0.429688 0 0  0.4375 0 0  0.445312 0 0  0.453125 0 0  0.460938 0 0  0.46875 0 0  0.476562 0 0  0.484375 0 0  0.492188 0 0  0.5 0 0  0.507812 0 0  0.515625 0 0  0.523438 0 0  0.53125 0 0  0.539062 0 0  0.546875 0 0  0.554688 0 0  0.5625 0 0  0.570312 0 0  0.578125 0 0  0.585938 0 0  0.59375 0 0  0.601562 0 0  0.609375 0 0  0.617188 0 0  0.625 0 0  0.632812 0 0  0.640625 0 0  0.648438 0 0  0.65625 0 0  0.664062 0 0  0.671875 0 0  0.679688 0 0  0.6875 0 0  0.695312 0 0  0.703125 0 0  0.710938 0 0  0.71875 0 0  0.726562 0 0  0.734375 0 0  0.742188 0 0  0.75 0 0  0.757812 0 0  0.765625 0 0  0.773438 0 0  0.78125 0 0  0.789062 0 0  0.796875 0 0  0.804688 0 0  0.8125 0 0  0.820312 0 0  0.828125 0 0  0.835938 0 0  0.84375 0 0  0.851562 0 0  0.859375 0 0  0.867188 0 0  0.875 0 0  0.882812 0 0  0.890625 0 0  0.898438 0 0  0.90625 0 0  0.914062 0 0  0.921875 0 0  0.929688 0 0  0.9375 0 0  0.945312 0 0  0.953125 0 0  0.960938 0 0  0.96875 0 0  0.976562 0 0  0.984375 0 0  0.992188 0 0  1 0 0  0 0.0078125 0  0.0078125 0.0078125 0  0.015625 0.0078125 0  0.0234375 0.0078125 0  0.03125 0.0078125 0  0.0390625 0.0078125 0  0.046875 0.0078125 0  0.0546875 0.0078125 0  0.0625 0.0078125 0  0.0703125 0.0078125 0  0.078125 0.0078125 0  0.0859375 0.0078125 0  0.09375 0.0078125 0  0.101562 0.0078125 0  0.109375 0.0078125 0  0.117188 0.0078125 0  0.125 0.0078125 0  0.132812 0.0078125 0  0.140625 0.0078125 0  0.148438 0.0078125 0  0.15625 0.0078125 0  0.164062 0.0078125 0  0.171875 0.0078125 0  0.179688 0.0078125 0  0.1875 0.0078125 0  0.195312 0.0078125 0  0.203125 0.0078125 0  0.210938 0.0078125 0  0.21875 0.0078125 0  0.226562 0.0078125 0  0.234375 0.0078125 0  0.242188 0.0078125 0  0.25 0.0078125 0  0.257812 0.0078125 0  0.265625 0.0078125 0  0.273438 0.0078125 0  0.28125 0.0078125 0  0.289062 0.0078125 0  0.296875 0.0078125 0  0.304688 0.0078125 0  0.3125 0.0078125 0  0.320312 0.0078125 0  0.328125 0.0078125 0  0.335938 0.0078125 0  0.34375 0.0078125 0  0.351562 0.0078125 0  0.359375 0.0078125 0  0.367188 0.0078125 0  0.375 0.0078125 0  0.382812 0.0078125 0  0.390625 0.0078125 0  0.398438 0.0078125 0  0.40625 0.0078125 0  0.414062 0.0078125 0  0.421875 0.0078125 0  0.429688 0.0078125 0  0.4375 0.0078125 0  0.445312 0.0078125 0  0.453125 0.0078125 0  0.460938 0.0078125 0  0.46875 0.0078125 0  0.476562 0.0078125 0  0.484375 0.0078125 0  0.492188 0.0078125 0  0.5 0.0078125 0  0.507812 0.0078125 0  0.515625 0.0078125 0  0.523438 0.0078125 0  0.53125 0.0078125 0  0.539062 0.0078125 0  0.546875 0.0078125 0  0.554688 0.0078125 0  0.5625 0.0078125 0  0.570312 0.0078125 0  0.578125 0.0078125 0  0.585938 0.0078125 0  0.59375 0.0078125 0  0.601562 0.0078125 0  0.609375 0.0078125 0  0.617188 0.0078125 0  0.625 0.0078125 0  0.632812 0.0078125 0  0.640625 0.0078125 0  0.648438 0.0078125 0  0.65625 0.0078125 0  0.664062 0.0078125 0  0.671875 0.0078125 0  0.679688 0.0078125 0  0.6875 0.0078125 0  0.695312 0.0078125 0  0.703125 0.0078125 0  0.710938 0.0078125 0  0.71875 0.0078125 0  0.726562 0.0078125 0  0.734375 0.0078125 0  0.742188 0.0078125 0  0.75 0.0078125 0  0.757812 0.0078125 0  0.765625 0.0078125 0  0.773438 0.0078125 0  0.78125 0.0078125 0  0.789062 0.0078125 0  0.796875 0.0078125 0  0.804688 0.0078125 0  0.8125 0.0078125 0  0.820312 0.0078125 0  0.828125 0.0078125 0  0.835938 0.0078125 0  0.84375 0.0078125 0  0.851562 0.0078125 0  0.859375 0.0078125 0  0.867188 0.0078125 0  0.875 0.0078125 0  0.882812 0.0078125 0  0.890625 0.0078125 0  0.898438 0.0078125 0  0.90625 0.0078125 0  0.914062 0.0078125 0  0.921875 0.0078125 0  0.929688 0.0078125 0  0.9375 0.0078125 0  0.945312 0.0078125 0  0.953125 0.0078125 0  0.960938 0.0078125 0  0.96875 0.0078125 0  0.976562 0.0078125 0  0.984375 0.0078125 0  0.992188 0.0078125 0  1 0.0078125 0  0 0.015625 0  0.0078125 0.015625 0  0.015625 0.015625 0  0.0234375 0.015625 0  0.03125 0.015625 0  0.0390625 0.015625 0  0.046875 0.015625 0  0.0546875 0.015625 0  0.0625 0.015625 0  0.0703125 0.015625 0  0.078125 0.015625 0  0.0859375 0.015625 0  0.09375 0.015625 0  0.101562 0.015625 0  0.109375 0.015625 0  0.117188 0.015625 0  0.125 0.015625 0  0.132812 0.015625 0  0.140625 0.015625 0  0.148438 0.015625 0  0.15625 0.015625 0  0.164062 0.015625 0  0.171875 0.015625 0  0.179688 0.015625 0  0.1875 0.015625 0  0.195312 0.015625 0  0.203125 0.015625 0  0.210938 0.015625 0  0.21875 0.015625 0  0.226562 0.015625 0  0.234375 0.015625 0  0.242188 0.015625 0  0.25 0.015625 0  0.257812 0.015625 0  0.265625 0.015625 0  0.273438 0.015625 0  0.28125 0.015625 0  0.289062 0.015625 0  0.296875 0.015625 0  0.304688 0.015625 0  0.3125 0.015625 0  0.320312 0.015625 0  0.328125 0.015625 0  0.335938 0.015625 0  0.34375 0.015625 0  0.351562 0.015625 0  0.359375 0.015625 0  0.367188 0.015625 0  0.375 0.015625 0  0.382812 0.015625 0  0.390625 0.015625 0  0.398438 0.015625 0  0.40625 0.015625 0  0.414062 0.015625 0  0.421875 0.015625 0  0.429688 0.015625 0  0.4375 0.015625 0  0.445312 0.015625 0  0.453125 0.015625 0  0.460938 0.015625 0  0.46875 0.015625 0  0.476562 0.015625 0  0.484375 0.015625 0  0.492188 0.015625 0  0.5 0.015625 0  0.507812 0.015625 0  0.515625 0.015625 0  0.523438 0.015625 0  0.53125 0.015625 0  0.539062 0.015625 0  0.546875 0.015625 0  0.554688 0.015625 0  0.5625 0.015625 0  0.570312 0.015625 0  0.578125 0.015625 0  0.585938 0.015625 0  0.59375 0.015625 0  0.601562 0.015625 0  0.609375 0.015625 0  0.617188 0.015625 0  0.625 0.015625 0  0.632812 0.015625 0  0.640625 0.015625 0  0.648438 0.015625 0  0.65625 0.015625 0  0.664062 0.015625 0  0.671875 0.015625 0  0.679688 0.015625 0  0.6875 0.015625 0  0.695312 0.015625 0  0.703125 0.015625 0  0.710938 0.015625 0  0.71875 0.015625 0  0.726562 0.015625 0  0.734375 0.015625 0  0.742188 0.015625 0  0.75 0.015625 0  0.757812 0.015625 0  0.765625 0.015625 0  0.773438 0.015625 0  0.78125 0.015625 0  0.789062 0.015625 0  0.796875 0.015625 0  0.804688 0.015625 0  0.8125 0.015625 0  0.820312 0.015625 0  0.828125 0.015625 0  0.835938 0.015625 0  0.84375 0.015625 0  0.851562 0.015625 0  0.859375 0.015625 0  0.867188 0.015625 0  0.875 0.015625 0  0.882812 0.015625 0  0.890625 0.015625 0  0.898438 0.015625 0  0.90625 0.015625 0  0.914062 0.015625 0  0.921875 0.015625 0  0.929688 0.015625 0  0.9375 0.015625 0  0.945312 0.015625 0  0.953125 0.015625 0  0.960938 0.015625 0  0.96875 0.015625 0  0.976562 0.015625 0  0.984375 0.015625 0  0.992188 0.015625 0  1 0.015625 0  0 0.0234375 0  0.0078125 0.0234375 0  0.015625 0.0234375 0  0.0234375 0.0234375 0  0.03125 0.0234375 0  0.0390625 0.0234375 0  0.046875 0.0234375 0  0.0546875 0.0234375 0  0.0625 0.0234375 0  0.0703125 0.0234375 0  0.078125 0.0234375 0  0.0859375 0.0234375 0  0.09375 0.0234375 0  0.101562 0.0234375 0  0.109375 0.0234375 0  0.117188 0.0234375 0  0.125 0.0234375 0  0.132812 0.0234375 0  0.140625 0.0234375 0  0.148438 0.0234375 0  0.15625 0.0234375 0  0.164062 0.0234375 0  0.171875 0.0234375 0  0.179688 0.0234375 0  0.1875 0.0234375 0  0.195312 0.0234375 0  0.203125 0.0234375 0  0.210938 0.0234375 0  0.21875 0.0234375 0  0.226562 0.0234375 0  0.234375 0.0234375 0  0.242188 0.0234375 0  0.25 0.0234375 0  0.257812 0.0234375 0  0.265625 0.0234375 0  0.273438 0.0234375 0  0.28125 0.0234375 0  0.289062 0.0234375 0  0.296875 0.0234375 0  0.304688 0.0234375 0  0.3125 0.0234375 0  0.320312 0.0234375 0  0.328125 0.0234375 0  0.335938 0.0234375 0  0.34375 0.0234375 0  0.351562 0.0234375 0  0.359375 0.0234375 0  0.367188 0.0234375 0  0.375 0.0234375 0  0.382812 0.0234375 0  0.390625 0.0234375 0  0.398438 0.0234375 0  0.40625 0.0234375 0  0.414062 0.0234375 0  0.421875 0.0234375 0  0.429688 0.0234375 0  0.4375 0.0234375 0  0.445312 0.0234375 0  0.453125 0.0234375 0  0.460938 0.0234375 0  0.46875 0.0234375 0  0.476562 0.0234375 0  0.484375 0.0234375 0  0.492188 0.0234375 0  0.5 0.0234375 0  0.507812 0.0234375 0  0.515625 0.0234375 0  0.523438 0.0234375 0  0.53125 0.0234375 0  0.539062 0.0234375 0  0.546875 0.0234375 0  0.554688 0.0234375 0  0.5625 0.0234375 0  0.570312 0.0234375 0  0.578125 0.0234375 0  0.585938 0.0234375 0  0.59375 0.0234375 0  0.601562 0.0234375 0  0.609375 0.0234375 0  0.617188 0.0234375 0  0.625 0.0234375 0  0.632812 0.0234375 0  0.640625 0.0234375 0  0.648438 0.0234375 0  0.65625 0.0234375 0  0.664062 0.0234375 0  0.671875 0.0234375 0  0.679688 0.0234375 0  0.6875 0.0234375 0  0.695312 0.0234375 0  0.703125 0.0234375 0  0.710938 0.0234375 0  0.71875 0.0234375 0  0.726562 0.0234375 0  0.734375 0.0234375 0  0.742188 0.0234375 0  0.75 0.0234375 0  0.757812 0.0234375 0  0.765625 0.0234375 0  0.773438 0.0234375 0  0.78125 0.0234375 0  0.789062 0.0234375 0  0.796875 0.0234375 0  0.804688 0.0234375 0  0.8125 0.0234375 0  0.820312 0.0234375 0  0.828125 0.0234375 0  0.835938 0.0234375 0  0.84375 0.0234375 0  0.851562 0.0234375 0  0.859375 0.0234375 0  0.867188 0.0234375 0  0.875 0.0234375 0  0.882812 0.0234375 0  0.890625 0.0234375 0  0.898438 0.0234375 0  0.90625 0.0234375 0  0.914062 0.0234375 0  0.921875 0.0234375 0  0.929688 0.0234375 0  0.9375 0.0234375 0  0.945312 0.0234
[...]
<PointData  Vectors="u"> 
<DataArray  type="Float32"  Name="u"  NumberOfComponents="3" format="ascii">2.971656e-12 1.168186e-12 0.000000e+00  -1.219275e-12 1.663031e-12 0.000000e+00  2.747816e-12 -6.001022e-12 0.000000e+00  5.320952e-12 -1.365691e-11 0.000000e+00  2.144490e-11 -2.578279e-11 0.000000e+00  5.233681e-11 -3.925840e-11 0.000000e+00  9.952427e-11 -5.253173e-11 0.000000e+00  1.621682e-10 -6.456115e-11 0.000000e+00  2.383875e-10 -7.471111e-11 0.000000e+00  3.257959e-10 -8.267711e-11 0.000000e+00  4.217906e-10 -8.835460e-11 0.000000e+00  5.237027e-10 -9.175480e-11 0.000000e+00  6.290420e-10 -9.297029e-11 0.000000e+00  7.350946e-10 -9.210742e-11 0.000000e+00  8.397530e-10 -8.935143e-11 0.000000e+00  9.408336e-10 -8.487359e-11 0.000000e+00  1.036307e-09 -7.885796e-11 0.000000e+00  1.124611e-09 -7.151641e-11 0.000000e+00  1.204400e-09 -6.305871e-11 0.000000e+00  1.274272e-09 -5.367878e-11 0.000000e+00  1.333111e-09 -4.357642e-11 0.000000e+00  1.380364e-09 -3.295953e-11 0.000000e+00  1.415607e-09 -2.201871e-11 0.000000e+00  1.438274e-09 -1.092974e-11 0.000000e+00  1.448140e-09 1.283391e-13 0.000000e+00  1.445549e-09 1.098705e-11 0.000000e+00  1.430844e-09 2.150475e-11 0.000000e+00  1.404165e-09 3.154691e-11 0.000000e+00  1.366039e-09 4.097690e-11 0.000000e+00  1.317477e-09 4.968421e-11 0.000000e+00  1.259335e-09 5.758953e-11 0.000000e+00  1.192255e-09 6.461157e-11 0.000000e+00  1.117292e-09 7.066775e-11 0.000000e+00  1.035841e-09 7.571174e-11 0.000000e+00  9.489820e-10 7.972763e-11 0.000000e+00  8.576176e-10 8.268984e-11 0.000000e+00  7.630735e-10 8.457280e-11 0.000000e+00  6.668326e-10 8.539041e-11 0.000000e+00  5.699319e-10 8.518151e-11 0.000000e+00  4.732942e-10 8.397088e-11 0.000000e+00  3.782595e-10 8.178525e-11 0.000000e+00  2.861402e-10 7.868711e-11 0.000000e+00  1.977149e-10 7.475476e-11 0.000000e+00  1.137231e-10 7.005204e-11 0.000000e+00  3.529456e-11 6.464727e-11 0.000000e+00  -3.662208e-11 5.863480e-11 0.000000e+00  -1.016449e-10 5.211375e-11 0.000000e+00  -1.593624e-10 4.517191e-11 0.000000e+00  -2.090222e-10 3.790428e-11 0.000000e+00  -2.501520e-10 3.041827e-11 0.000000e+00  -2.828170e-10 2.281455e-11 0.000000e+00  -3.070080e-10 1.518826e-11 0.000000e+00  -3.224443e-10 7.644052e-12 0.000000e+00  -3.291558e-10 2.839572e-13 0.000000e+00  -3.276224e-10 -6.807021e-12 0.000000e+00  -3.182368e-10 -1.354257e-11 0.000000e+00  -3.012057e-10 -1.982543e-11 0.000000e+00  -2.770064e-10 -2.557489e-11 0.000000e+00  -2.464315e-10 -3.073491e-11 0.000000e+00  -2.102064e-10 -3.524194e-11 0.000000e+00  -1.689649e-10 -3.902126e-11 0.000000e+00  -1.235120e-10 -4.202527e-11 0.000000e+00  -7.480164e-11 -4.423508e-11 0.000000e+00  -2.376718e-11 -4.562006e-11 0.000000e+00  2.865574e-11 -4.613973e-11 0.000000e+00  8.149847e-11 -4.578605e-11 0.000000e+00  1.338205e-10 -4.457971e-11 0.000000e+00  1.846430e-10 -4.252850e-11 0.000000e+00  2.328993e-10 -3.963289e-11 0.000000e+00  2.776398e-10 -3.592510e-11 0.000000e+00  3.181111e-10 -3.146209e-11 0.000000e+00  3.534647e-10 -2.629012e-11 0.000000e+00  3.826959e-10 -2.045154e-11 0.000000e+00  4.050495e-10 -1.401368e-11 0.000000e+00  4.201053e-10 -7.061275e-12 0.000000e+00  4.273113e-10 3.264639e-13 0.000000e+00  4.259111e-10 8.070625e-12 0.000000e+00  4.154862e-10 1.607920e-11 0.000000e+00  3.960480e-10 2.425235e-11 0.000000e+00  3.674708e-10 3.248870e-11 0.000000e+00  3.293991e-10 4.068411e-11 0.000000e+00  2.818377e-10 4.873653e-11 0.000000e+00  2.252642e-10 5.654659e-11 0.000000e+00  1.600513e-10 6.400580e-11 0.000000e+00  8.633537e-11 7.100123e-11 0.000000e+00  4.560270e-12 7.743811e-11 0.000000e+00  -8.436924e-11 8.323425e-11 0.000000e+00  -1.795846e-10 8.829196e-11 0.000000e+00  -2.804487e-10 9.250930e-11 0.000000e+00  -3.861430e-10 9.581687e-11 0.000000e+00  -4.954484e-10 9.816553e-11 0.000000e+00  -6.070876e-10 9.948710e-11 0.000000e+00  -7.200079e-10 9.971150e-11 0.000000e+00  -8.331588e-10 9.881103e-11 0.000000e+00  -9.451862e-10 9.678275e-11 0.000000e+00  -1.054575e-09 9.360499e-11 0.000000e+00  -1.160035e-09 8.925835e-11 0.000000e+00  -1.260493e-09 8.376922e-11 0.000000e+00  -1.354690e-09 7.718911e-11 0.000000e+00  -1.441114e-09 6.955552e-11 0.000000e+00  -1.518494e-09 6.091329e-11 0.000000e+00  -1.585989e-09 5.134879e-11 0.000000e+00  -1.642687e-09 4.096988e-11 0.000000e+00  -1.687369e-09 2.987878e-11 0.000000e+00  -1.719087e-09 1.818967e-11 0.000000e+00  -1.737496e-09 6.046540e-12 0.000000e+00  -1.742281e-09 -6.392184e-12 0.000000e+00  -1.732812e-09 -1.896331e-11 0.000000e+00  -1.708776e-09 -3.148935e-11 0.000000e+00  -1.670557e-09 -4.378074e-11 0.000000e+00  -1.618644e-09 -5.564248e-11 0.000000e+00  -1.553262e-09 -6.686525e-11 0.000000e+00  -1.474985e-09 -7.722774e-11 0.000000e+00  -1.385095e-09 -8.651760e-11 0.000000e+00  -1.285013e-09 -9.452676e-11 0.000000e+00  -1.175990e-09 -1.010286e-10 0.000000e+00  -1.059632e-09 -1.057951e-10 0.000000e+00  -9.381575e-10 -1.086303e-10 0.000000e+00  -8.139253e-10 -1.093550e-10 0.000000e+00  -6.892232e-10 -1.077836e-10 0.000000e+00  -5.666223e-10 -1.037599e-10 0.000000e+00  -4.490970e-10 -9.719910e-11 0.000000e+00  -3.397018e-10 -8.809077e-11 0.000000e+00  -2.414035e-10 -7.648051e-11 0.000000e+00  -1.572106e-10 -6.252125e-11 0.000000e+00  -9.026424e-11 -4.682902e-11 0.000000e+00  -4.320811e-11 -3.043189e-11 0.000000e+00  -1.795775e-11 -1.802303e-11 0.000000e+00  -1.335258e-11 -1.796206e-11 0.000000e+00  -4.699501e-12 1.965678e-12 0.000000e+00  5.563809e-08 -5.544653e-08 0.000000e+00  5.353003e-08 2.376408e-08 0.000000e+00  -1.518868e-07 1.526140e-07 0.000000e+00  -6.081143e-07 2.895257e-07 0.000000e+00  -1.314164e-06 4.172883e-07 0.000000e+00  -2.246763e-06 5.281783e-07 0.000000e+00  -3.371745e-06 6.189842e-07 0.000000e+00  -4.650459e-06 6.886899e-07 0.000000e+00  -6.042992e-06 7.374221e-07 0.000000e+00  -7.509995e-06 7.659544e-07 0.000000e+00  -9.013756e-06 7.754479e-07 0.000000e+00  -1.051890e-05 7.673001e-07 0.000000e+00  -1.199660e-05 7.433729e-07 0.000000e+00  -1.340580e-05 7.044373e-07 0.000000e+00  -1.472666e-05 6.528161e-07 0.000000e+00  -1.594708e-05 5.907804e-07 0.000000e+00  -1.703851e-05 5.195221e-07 0.000000e+00  -1.797185e-05 4.403187e-07 0.000000e+00  -1.874508e-05 3.553855e-07 0.000000e+00  -1.936300e-05 2.667803e-07 0.000000e+00  -1.980624e-05 1.756523e-07 0.000000e+00  -2.005543e-05 8.319024e-08 0.000000e+00  -2.012448e-05 -8.785897e-09 0.000000e+00  -2.003251e-05 -9.866696e-08 0.000000e+00  -1.976829e-05 -1.855339e-07 0.000000e+00  -1.932082e-05 -2.684630e-07 0.000000e+00  -1.871617e-05 -3.461897e-07 0.000000e+00  -1.798381e-05 -4.176825e-07 0.000000e+00  -1.711835e-05 -4.823616e-07 0.000000e+00  -1.611474e-05 -5.396616e-07 0.000000e+00  -1.500658e-05 -5.889373e-07 0.000000e+00  -1.382898e-05 -6.297741e-07 0.000000e+00  -1.257958e-05 -6.619645e-07 0.000000e+00  -1.125637e-05 -6.853187e-07 0.000000e+00  -9.895690e-06 -6.997922e-07 0.000000e+00  -8.533548e-06 -7.055493e-07 0.000000e+00  -7.167846e-06 -7.027210e-07 0.000000e+00  -5.796792e-06 -6.914456e-07 0.000000e+00  -4.455067e-06 -6.721960e-07 0.000000e+00  -3.175408e-06 -6.456168e-07 0.000000e+00  -1.953634e-06 -6.120924e-07 0.000000e+00  -7.859650e-07 -5.719949e-07 0.000000e+00  2.981766e-07 -5.261847e-07 0.000000e+00  1.272552e-06 -4.756487e-07 0.000000e+00  2.144949e-06 -4.209068e-07 0.000000e+00  2.922517e-06 -3.624428e-07 0.000000e+00  3.583541e-06 -3.013501e-07 0.000000e+00  4.110350e-06 -2.388000e-07 0.000000e+00  4.514882e-06 -1.753172e-07 0.000000e+00  4.808029e-06 -1.113665e-07 0.000000e+00  4.977002e-06 -4.811440e-08 0.000000e+00  5.013511e-06 1.324129e-08 0.000000e+00  4.933180e-06 7.229698e-08 0.000000e+00  4.750012e-06 1.287291e-07 0.000000e+00  4.460153e-06 1.814450e-07 0.000000e+00  4.064324e-06 2.293627e-07 0.000000e+00  3.580449e-06 2.723053e-07 0.000000e+00  3.024149e-06 3.101892e-07 0.000000e+00  2.399443e-06 3.421165e-07 0.000000e+00  1.714694e-06 3.672340e-07 0.000000e+00  9.880297e-07 3.856651e-07 0.000000e+00  2.345505e-07 3.976300e-07 0.000000e+00  -5.357168e-07 4.025101e-07 0.000000e+00  -1.308880e-06 3.997547e-07 0.000000e+00  -2.069125e-06 3.898210e-07 0.000000e+00  -2.804349e-06 3.732548e-07 0.000000e+00  -3.500880e-06 3.497578e-07 0.000000e+00  -4.141819e-06 3.191118e-07 0.000000e+00  -4.716259e-06 2.820954e-07 0.000000e+00  -5.217573e-06 2.395564e-07 0.000000e+00  -5.630946e-06 1.915117e-07 0.000000e+00  -5.939045e-06 1.380592e-07 0.000000e+00  -6.138192e-06 8.024121e-08 0.000000e+00  -6.229342e-06 1.913838e-08 0.000000e+00  -6.198828e-06 -4.496719e-08 0.000000e+00  -6.031151e-06 -1.117215e-07 0.000000e+00  -5.731560e-06 -1.799189e-07 0.000000e+00  -5.309990e-06 -2.483561e-07 0.000000e+00  -4.755663e-06 -3.165750e-07 0.000000e+00  -4.056562e-06 -3.840625e-07 0.000000e+00  -3.227628e-06 -4.495851e-07 0.000000e+00  -2.288180e-06 -5.119593e-07 0.000000e+00  -1.231250e-06 -5.706693e-07 0.000000e+00  -4.907689e-08 -6.251673e-07 0.000000e+00  1.234101e-06 -6.743491e-07 0.000000e+00  2.590375e-06 -7.172131e-07 0.000000e+00  4.022979e-06 -7.533201e-07 0.000000e+00  5.535669e-06 -7.822223e-07 0.000000e+00  7.096581e-06 -8.031104e-07 0.000000e+00  8.671294e-06 -8.153276e-07 0.000000e+00  1.026043e-05 -8.186438e-07 0.000000e+00  1.186505e-05 -8.128402e-07 0.000000e+00  1.344857e-05 -7.975540e-07 0.000000e+00  1.497336e-05 -7.726185e-07 0.000000e+00  1.643953e-05 -7.381235e-07 0.000000e+00  1.784762e-05 -6.941811e-07 0.000000e+00  1.916035e-05 -6.409927e-07 0.000000e+00  2.034116e-05 -5.789880e-07 0.000000e+00  2.139241e-05 -5.086445e-07 0.000000e+00  2.231699e-05 -4.304611e-07 0.000000e+00  2.308163e-05 -3.452668e-07 0.000000e+00  2.365570e-05 -2.541335e-07 0.000000e+00  2.404690e-05 -1.579353e-07 0.000000e+00  2.426352e-05 -5.755059e-08 0.000000e+00  2.428121e-05 4.557160e-08 0.000000e+00  2.408020e-05 1.497469e-07 0.000000e+00  2.367643e-05 2.537673e-07 0.000000e+00  2.308626e-05 3.564532e-07 0.000000e+00  2.229880e-05 4.558250e-07 0.000000e+00  2.130949e-05 5.497007e-07 0.000000e+00  2.014454e-05 6.366749e-07 0.000000e+00  1.883019e-05 7.154150e-07 0.000000e+00  1.737248e-05 7.835862e-07 0.000000e+00  1.578506e-05 8.387176e-07 0.000000e+00  1.410510e-05 8.794180e-07 0.000000e+00  1.236898e-05 9.044188e-07 0.000000e+00  1.060124e-05 9.113246e-07 0.000000e+00  8.834441e-06 8.977553e-07 0.000000e+00  7.114934e-06 8.627199e-07 0.000000e+00  5.486941e-06 8.054826e-07 0.000000e+00  3.990872e-06 7.244386e-07 0.000000e+00  2.672571e-06 6.187450e-07 0.000000e+00  1.577810e-06 4.899919e-07 0.000000e+00  7.438970e-07 3.419511e-07 0.000000e+00  1.994377e-07 1.826186e-07 0.000000e+00  -5.068213e-08 3.235989e-08 0.000000e+00  -6.049189e-08 -6.063100e-08 0.000000e+00  -1.370084e-11 -1.215455e-11 0.000000e+00  6.643820e-13 -2.657951e-12 0.000000e+00  -2.222859e-08 -5.425699e-08 0.000000e+00  -2.473843e-07 2.500072e-07 0.000000e+00  -8.289711e-07 6.994418e-07 0.000000e+00  -1.824697e-06 1.180968e-06 0.000000e+00  -3.236461e-06 1.636447e-06 0.000000e+00  -5.031168e-06 2.036694e-06 0.000000e+00  -7.155965e-06 2.367775e-06 0.000000e+00  -9.547816e-06 2.623992e-06 0.000000e+00  -1.213930e-05 2.804346e-06 0.000000e+00  -1.486233e-05 2.910644e-06 0.000000e+00  -1.765050e-05 2.946449e-06 0.000000e+00  -2.044067e-05 2.916465e-06 0.000000e+00  -2.318167e-05 2.827268e-06 0.000000e+00  -2.579671e-05 2.681458e-06 0.000000e+00  -2.825079e-05 2.487630e-06 0.000000e+00  -3.052297e-05 2.254222e-06 0.000000e+00  -3.255923e-05 1.985595e-06 0.000000e+00  -3.430408e-05 1.686510e-06 0.000000e+00  -3.575475e-05 1.365359e-06 0.000000e+00  -3.692119e-05 1.029915e-06 0.000000e+00  -3.776568e-05 6.844791e-07 0.000000e+00  -3.825034e-05 3.335654e-07 0.000000e+00  -3.840183e-05 -1.585937e-08 0.000000e+00  -3.825671e-05 -3.576775e-07 0.000000e+00  -3.779209e-05 -6.884208e-07 0.000000e+00  -3.698552e-05 -1.004539e-06 0.000000e+00  -3.588643e-05 -1.301155e-06 0.000000e+00  -3.455073e-05 -1.574335e-06 0.000000e+00  -3.296640e-05 -1.821877e-06 0.000000e+00  -3.112203e-05 -2.041577e-06 0.000000e+00  -2.908134e-05 -2.230914e-06 0.000000e+00  -2.691085e-05 -2.388305e-06 0.000000e+00  -2.460431e-05 -2.512952e-06 0.000000e+00  -2.215609e-05 -2.604074e-06 0.000000e+00  -1.963520e-05 -2.661454e-06 0.000000e+00  -1.710999e-05 -2.685719e-06 0.000000e+00  -1.457481e-05 -2.677355e-06 0.000000e+00  -1.202470e-05 -2.636832e-06 0.000000e+00  -9.525660e-06 -2.565922e-06 0.000000e+00  -7.140015e-06 -2.467095e-06 0.000000e+00  -4.858448e-06 -2.341797e-06 0.000000e+00  -2.672529e-06 -2.191394e-06 0.000000e+00  -6.385016e-07 -2.019155e-06 0.000000e+00  1.193449e-06 -1.828867e-06 0.000000e+00  2.839141e-06 -1.622489e-06 0.000000e+00  4.313007e-06 -1.401817e-06 0.000000e+00  5.573233e-06 -1.171028e-06 0.000000e+00  6.585705e-06 -9.346220e-07 0.000000e+00  7.373743e-06 -6.945709e-07 0.000000e+00  7.958474e-06 -4.526027e-07 0.000000e+00  8.314854e-06 -2.131912e-07 0.000000e+00  8.426444e-06 1.905870e-08 0.000000e+00  8.323171e-06 2.426425e-07 0.000000e+00  8.031681e-06 4.563667e-07 0.000000e+00  7.543775e-06 6.560269e-07 0.000000e+00  6.860054e-06 8.374586e-07 0.000000e+00  6.014454e-06 1.000029e-06 0.000000e+00  5.036339e-06 1.143458e-06 0.000000e+00  3.932434e-06 1.264274e-06 0.000000e+00  2.717845e-06 1.359187e-06 0.000000e+00  1.426599e-06 1.428719e-06 0.000000e+00  8.677947e-08 1.473745e-06 0.000000e+00  -1.283420e-06 1.491854e-06 0.000000e+00  -2.658307e-06 1.480915e-06 0.000000e+00  -4.008472e-06 1.442729e-06 0.000000e+00  -5.311734e-06 1.379410e-06 0.000000e+00  -6.542826e-06 1.289766e-06 0.000000e+00  -7.670168e-06 1.172941e-06 0.000000e+00  -8.673812e-06 1.031965e-06 0.000000e+00  -9.542088e-06 8.700999e-07 0.000000e+00  -1.024732e-05 6.873545e-07 0.000000e+00  -1.075684e-05 4.840835e-07 0.000000e+00  -1.106448e-05 2.643242e-07 0.000000e+00  -1.117299e-05 3.221917e-08 0.000000e+00  -1.105653e-05 -2.112138e-07 0.000000e+00  -1.068562e-05 -4.646379e-07 0.000000e+00  -1.007098e-05 -7.233963e-07 0.000000e+00  -9.232326e-06 -9.828902e-07 0.000000e+00  -8.148948e-06 -1.241432e-06 0.000000e+00  -6.797572e-06 -1.497076e-06 0.000000e+00  -5.207212e-06 -1.745066e-06 0.000000e+00  -3.415249e-06 -1.980893e-06 0.000000e+00  -1.407782e-06 -2.202653e-06 0.000000e+00  8.307807e-07 -2.408266e-06 0.000000e+00  3.253955e-06 -2.593481e-06 0.000000e+00  5.808267e-06 -2.754501e-06 0.000000e+00  8.500941e-06 -2.889713e-06 0.000000e+00  1.134035e-05 -2.997419e-06 0.000000e+00  1.426574e-05 -3.074510e-06 0.000000e+00  1.721152e-05 -3.118518e-06 0.000000e+00  2.018033e-05 -3.128630e-06 0.000000e+00  2.317572e-05 -3.104018e-06 0.000000e+00  2.612821e-05 -3.043293e-06 0.000000e+00  2.896632e-05 -2.945871e-06 0.000000e+00  3.169195e-05 -2.812153e-06 0.000000e+00  3.430795e-05 -2.642573e-06 0.000000e+00  3.674364e-05 -2.437906e-06 0.000000e+00  3.892967e-05 -2.199851e-06 0.000000e+00  4.087238e-05 -1.930277e-06 0.000000e+00  4.257912e-05 -1.631084e-06 0.000000e+00  4.398682e-05 -1.305452e-06 0.000000e+00  4.503743e-05 -9.575260e-07 0.000000e+00  4.574736e-05 -5.906642e-07 0.000000e+00  4.613402e-05 -2.082015e-07 0.000000e+00  4.615113e-05 1.843220e-07 0.000000e+00  4.576106e-05 5.804467e-07 0.000000e+00  4.499550e-05 9.755801e-07 0.000000e+00  4.388674e-05 1.365267e-06 0.000000e+00  4.241363e-05 1.741972e-06 0.000000e+00  4.056688e-05 2.097395e-06 0.000000e+00  3.839697e-05 2.426267e-06 0.000000e+00  3.595411e-05 2.723615e-06 0.000000e+00  3.324835e-05 2.980636e-06 0.000000e+00  3.030388e-05 3.188081e-06 0.000000e+00  2.719052e-05 3.340905e-06 0.000000e+00  2.397624e-05 3.434567e-06 0.000000e+00  2.070420e-05 3.460317e-06 0.000000e+00  1.743188e-05 3.409677e-06 0.000000e+00  1.424360e-05 3.279649e-06 0.000000e+00  1.121857e-05 3.068371e-06 0.000000e+00  8.425149e-06 2.771069e-06 0.000000e+00  5.939611e-06 2.386417e-06 0.000000e+00  3.838073e-06 1.922661e-06 0.000000e+00  2.178709e-06 1.396108e-06 0.000000e+00  1.000780e-06 8.369348e-07 0.000000e+00  3.084304e-07 3.111955e-07 0.000000e+00  3.184487e-08 -5.046564e-08 0.000000e+00  -1.350128e-11 -1.609723e-11 0.000000e+00  4.190516e-12 -3.976802e-12 0.000000e+00  -1.496862e-07 1.480922e-07 0.000000e+00  -6.949282e-07 8.313346e-07 0.000000e+00  -1.742696e-06 1.745899e-06 0.000000e+00  -3.333304e-06 2.714212e-06 0.000000e+00  -5.459673e-06 3.633991e-06 0.000000e+00  -8.078906e-06 4.448046e-06 0.000000e+00  -1.112507e-05 5.125962e-06 0.000000e+00  -1.451841e-05 5.653438e-06 0.000000e+00  -1.817212e-05 6.026108e-06 0.000000e+00  -2.199713e-05 6.245918e-06 0.000000e+00  -2.590543e-05 6.318943e-06 0.000000e+00  -2.981242e-05 6.254036e-06 0.000000e+00  -3.365016e-05 6.064344e-06 0.000000e+00  -3.731076e-05 5.754674e-06 0.000000e+00  -4.074829e-05 5.342897e-06 0.000000e+00  -4.393615e-05 4.846713e-06 0.000000e+00  -4.679761e-05 4.275099e-06 0.000000e+00  -4.925344e-05 3.637960e-06 0.000000e+00  -5.130151e-05 2.953153e-06 0.000000e+00  -5.295745e-05 2.237256e-06 0.000000e+00  -5.416634e-05 1.499339e-06 0.000000e+00  -5.487273e-05 7.489799e-07 0.000000e+00  -5.511531e-05 1.134308e-09 0.000000e+00  -5.494674e-05 -7.310541e-07 0.000000e+00  -5.433242e-05 -1.440192e-06 0.000000e+00  -5.323815e-05 -2.118675e-06 0.000000e+00  -5.173459e-05 -2.755970e-06 0.000000e+00  -4.990153e-05 -3.343582e-06 0.000000e+00  -4.771944e-05 -3.876779e-06 0.000000e+00  -4.516961e-05 -4.350785e-06 0.000000e+00  -4.234287e-05 -4.760121e-06 0.000000e+00  -3.933401e-05 -5.101335e-06 0.000000e+00  -3.613167e-05 -5.372675e-06 0.000000e+00  -3.272540e-05 -5.572391e-06 0.000000e+00  -2.921362e-05 -5.699962e-06 0.000000e+00  -2.569382e-05 -5.756707e-06 0.000000e+00  -2.215569e-05 -5.743609e-06 0.000000e+00  -1.858997e-05 -5.661588e-06 0.000000e+00  -1.509100e-05 -5.514422e-06 0.000000e+00  -1.174793e-05 -5.307422e-06 0.000000e+00  -8.545518e-06 -5.043618e-06 0.000000e+00  -5.470011e-06 -4.725849e-06 0.000000e+00  -2.602129e-06 -4.361143e-06 0.000000e+00  -1.394277e-08 -3.957667e-06 0.000000e+00  2.318560e-06 -3.519548e-06 0.000000e+00  4.417183e-06 -3.050545e-06 0.000000e+00  6.221489e-06 -2.559669e-06 0.000000e+00  7.682077e-06 -2.056647e-06 0.000000e+00  8.833122e-06 -1.545627e-06 0.000000e+00  9.705410e-06 -1.030220e-06 0.000000e+00  1.026218e-05 -5.201010e-07 0.000000e+00  1.047903e-05 -2.524367e-08 0.000000e+00  1.039904e-05 4.512137e-07 0.000000e+00  1.006029e-05 9.068127e-07 0.000000e+00  9.449897e-06 1.332437e-06 0.000000e+00  8.567652e-06 1.719046e-06 0.000000e+00  7.461837e-06 2.065382e-06 0.000000e+00  6.173936e-06 2.370948e-06 0.000000e+00  4.712291e-06 2.628197e-06 0.000000e+00  3.097377e-06 2.829957e-06 0.000000e+00  1.377185e-06 2.977457e-06 0.000000e+00  -4.090305e-07 3.072689e-06 0.000000e+00  -2.236492e-06 3.110374e-06 0.000000e+00  -4.069510e-06 3.085832e-06 0.000000e+00  -5.866990e-06 3.003044e-06 0.000000e+00  -7.598389e-06 2.866664e-06 0.000000e+00  -9.228627e-06 2.674031e-06 0.000000e+00  -1.071337e-05 2.423204e-06 0.000000e+00  -1.202523e-05 2.120810e-06 0.000000e+00  -1.314878e-05 1.773961e-06 0.000000e+00  -1.404519e-05 1.382573e-06 0.000000e+00  -1.466820e-05 9.473160e-07 0.000000e+00  -1.501014e-05 4.769698e-07 0.000000e+00  -1.507618e-05 -1.947207e-08 0.000000e+00  -1.482965e-05 -5.399244e-07 0.000000e+00  -1.422836e-05 -1.081605e-06 0.000000e+00  -1.328867e-05 -1.634417e-06 0.000000e+00  -1.203985e-05 -2.188407e-06 0.000000e+00  -1.045198e-05 -2.740051e-06 0.000000e+00  -8.491233e-06 -3.285256e-06 0.000000e+00  -6.199855e-06 -3.813735e-06 0.000000e+00  -3.632090e-06 -4.315756e-06 0.000000e+00  -7.671651e-07 -4.787329e-06 0.000000e+00  2.418359e-06 -5.224069e-06 0.000000e+00  5.857571e-06 -5.616807e-06 0.000000e+00  9.473564e-06 -5.957369e-06 0.000000e+00  1.327816e-05 -6.242395e-06 0.000000e+00  1.728503e-05 -6.468317e-06 0.000000e+00  2.140721e-05 -6.628445e-06 0.000000e+00  2.555079e-05 -6.717502e-06 0.000000e+00  2.972157e-05 -6.733836e-06 0.000000e+00  3.392678e-05 -6.675744e-06 0.000000e+00  3.806726e-05 -6.540263e-06 0.000000e+00  4.204097e-05 -6.326194e-06 0.000000e+00  4.585303e-05 -6.034480e-06 0.000000e+00  4.950990e-05 -5.666109e-06 0.000000e+00  5.291086e-05 -5.222796e-06 0.00000