<?xml version="1.0"?>
<VTKFile type="UnstructuredGrid"  version="0.1"  >
<UnstructuredGrid>
<Piece  NumberOfPoints="16641" NumberOfCells="32768">
<Points>
<DataArray  type="Float32"  NumberOfComponents="3"  format="ascii">0 0 0  0.0078125 0 0  0.015625 0 0  0.0234375 0 0  0.03125 0 0  0.0390625 0 0  0.046875 0 0  0.0546875 0 0  0.0625 0 0  0.0703125 0 0  0.078125 0 0  0.0859375 0 0  0.09375 0 0  0.101562 0 0  0.109375 0 0  0.117188 0 0  0.125 0 0  0.132812 0 0  0.140625 0 0  0.148438 0 0  0.15625 0 0  0.164062 0 0  0.171875 0 0  0.179688 0 0  0.1875 0 0  0.195312 0 0  0.203125 0 0  0.210938 0 0  0.21875 0 0  0.226562 0 0  0.234375 0 0  0.242188 0 0  0.25 0 0  0.257812 0 0  0.265625 0 0  0.273438 0 0  0.28125 0 0  0.289062 0 0  0.296875 0 0  0.304688 0 0  0.3125 0 0  0.320312 0 0  0.328125 0 0  0.335938 0 0  0.34375 0 0  0.351562 0 0  0.359375 0 0  0.367188 0 0  0.375 0 0  0.382812 0 0  0.390625 0 0  0.398438 0 0  0.40625 0 0  0.414062 0 0  0.421875 0 0  0.429688 0 0  0.4375 0 0  0.445312 0 0  0.453125 0 0  0.460938 0 0  0.46875 0 0  0.476562 0 0  0.484375 0 0  0.492188 0 0  0.5 0 0  0.507812 0 0  0.515625 0 0  0.523438 0 0  0.53125 0 0  0.539062 0 0  0.546875 0 0  0.554688 0 0  0.5625 0 0  0.570312 0 0  0.578125 0 0  0.585938 0 0  0.59375 0 0  0.601562 0 0  0.609375 0 0  0.617188 0 0  0.625 0 0  0.632812 0 0  0.640625 0 0  0.648438 0 0  0.65625 0 0  0.664062 0 0  0.671875 0 0  0.679688 0 0  0.6875 0 0  0.695312 0 0  0.703125 0 0  0.710938 0 0  0.71875 0 0  0.726562 0 0  0.734375 0 0  0.742188 0 0  0.75 0 0  0.757812 0 0  0.765625 0 0  0.773438 0 0  0.78125 0 0  0.789062 0 0  0.796875 0 0  0.804688 0 0  0.8125 0 0  0.820312 0 0  0.828125 0 0  0.835938 0 0  0.84375 0 0  0.851562 0 0  0.859375 0 0  0.867188 0 0  0.875 0 0  0.882812 0 0  0.890625 0 0  0.898438 0 0  0.90625 0 0  0.914062 0 0  0.921875 0 0  0.929688 0 0  0.9375 0 0  0.945312 0 0  0.953125 0 0  0.960938 0 0  0.96875 0 0  0.976562 0 0  0.984375 0 0  0.992188 0 0  1 0 0  0 0.0078125 0  0.0078125 0.0078125 0  0.015625 0.0078125 0  0.0234375 0.0078125 0  0.03125 0.0078125 0  0.0390625 0.0078125 0  0.046875 0.0078125 0  0.0546875 0.0078125 0  0.0625 0.0078125 0  0.0703125 0.0078125 0  0.078125 0.0078125 0  0.0859375 0.0078125 0  0.09375 0.0078125 0  0.101562 0.0078125 0  0.109375 0.0078125 0  0.117188 0.0078125 0  0.125 0.0078125 0  0.132812 0.0078125 0  0.140625 0.0078125 0  0.148438 0.0078125 0  0.15625 0.0078125 0  0.164062 0.0078125 0  0.171875 0.0078125 0  0.179688 0.0078125 0  0.1875 0.0078125 0  0.195312 0.0078125 0  0.203125 0.0078125 0  0.210938 0.0078125 0  0.21875 0.0078125 0  0.226562 0.0078125 0  0.234375 0.0078125 0  0.242188 0.0078125 0  0.25 0.0078125 0  0.257812 0.0078125 0  0.265625 0.0078125 0  0.273438 0.0078125 0  0.28125 0.0078125 0  0.289062 0.0078125 0  0.296875 0.0078125 0  0.304688 0.0078125 0  0.3125 0.0078125 0  0.320312 0.0078125 0  0.328125 0.0078125 0  0.335938 0.0078125 0  0.34375 0.0078125 0  0.351562 0.0078125 0  0.359375 0.0078125 0  0.367188 0.0078125 0  0.375 0.0078125 0  0.382812 0.0078125 0  0.390625 0.0078125 0  0.398438 0.0078125 0  0.40625 0.0078125 0  0.414062 0.0078125 0  0.421875 0.0078125 0  0.429688 0.0078125 0  0.4375 0.0078125 0  0.445312 0.0078125 0  0.453125 0.0078125 0  0.460938 0.0078125 0  0.46875 0.0078125 0  0.476562 0.0078125 0  0.484375 0.0078125 0  0.492188 0.0078125 0  0.5 0.0078125 0  0.507812 0.0078125 0  0.515625 0.0078125 0  0.523438 0.0078125 0  0.53125 0.0078125 0  0.539062 0.0078125 0  0.546875 0.0078125 0  0.554688 0.0078125 0  0.5625 0.0078125 0  0.570312 0.0078125 0  0.578125 0.0078125 0  0.585938 0.0078125 0  0.59375 0.0078125 0  0.601562 0.0078125 0  0.609375 0.0078125 0  0.617188 0.0078125 0  0.625 0.0078125 0  0.632812 0.0078125 0  0.640625 0.0078125 0  0.648438 0.0078125 0  0.65625 0.0078125 0  0.664062 0.0078125 0  0.671875 0.0078125 0  0.679688 0.0078125 0  0.6875 0.0078125 0  0.695312 0.0078125 0  0.703125 0.0078125 0  0.710938 0.0078125 0  0.71875 0.0078125 0  0.726562 0.0078125 0  0.734375 0.0078125 0  0.742188 0.0078125 0  0.75 0.0078125 0  0.757812 0.0078125 0  0.765625 0.0078125 0  0.773438 0.0078125 0  0.78125 0.0078125 0  0.789062 0.0078125 0  0.796875 0.0078125 0  0.804688 0.0078125 0  0.8125 0.0078125 0  0.820312 0.0078125 0  0.828125 0.0078125 0  0.835938 0.0078125 0  0.84375 0.0078125 0  0.851562 0.0078125 0  0.859375 0.0078125 0  0.867188 0.0078125 0  0.875 0.0078125 0  0.882812 0.0078125 0  0.890625 0.0078125 0  0.898438 0.0078125 0  0.90625 0.0078125 0  0.914062 0.0078125 0  0.921875 0.0078125 0  0.929688 0.0078125 0  0.9375 0.0078125 0  0.945312 0.0078125 0  0.953125 0.0078125 0  0.960938 0.0078125 0  0.96875 0.0078125 0  0.976562 0.0078125 0  0.984375 0.0078125 0  0.992188 0.0078125 0  1 0.0078125 0  0 0.015625 0  0.0078125 0.015625 0  0.015625 0.015625 0  0.0234375 0.015625 0  0.03125 0.015625 0  0.0390625 0.015625 0  0.046875 0.015625 0  0.0546875 0.015625 0  0.0625 0.015625 0  0.0703125 0.015625 0  0.078125 0.015625 0  0.0859375 0.015625 0  0.09375 0.015625 0  0.101562 0.015625 0  0.109375 0.015625 0  0.117188 0.015625 0  0.125 0.015625 0  0.132812 0.015625 0  0.140625 0.015625 0  0.148438 0.015625 0  0.15625 0.015625 0  0.164062 0.015625 0  0.171875 0.015625 0  0.179688 0.015625 0  0.1875 0.015625 0  0.195312 0.015625 0  0.203125 0.015625 0  0.210938 0.015625 0  0.21875 0.015625 0  0.226562 0.015625 0  0.234375 0.015625 0  0.242188 0.015625 0  0.25 0.015625 0  0.257812 0.015625 0  0.265625 0.015625 0  0.273438 0.015625 0  0.28125 0.015625 0  0.289062 0.015625 0  0.296875 0.015625 0  0.304688 0.015625 0  0.3125 0.015625 0  0.320312 0.015625 0  0.328125 0.015625 0  0.335938 0.015625 0  0.34375 0.015625 0  0.351562 0.015625 0  0.359375 0.015625 0  0.367188 0.015625 0  0.375 0.015625 0  0.382812 0.015625 0  0.390625 0.015625 0  0.398438 0.015625 0  0.40625 0.015625 0  0.414062 0.015625 0  0.421875 0.015625 0  0.429688 0.015625 0  0.4375 0.015625 0  0.445312 0.015625 0  0.453125 0.015625 0  0.460938 0.015625 0  0.46875 0.015625 0  0.476562 0.015625 0  0.484375 0.015625 0  0.492188 0.015625 0  0.5 0.015625 0  0.507812 0.015625 0  0.515625 0.015625 0  0.523438 0.015625 0  0.53125 0.015625 0  0.539062 0.015625 0  0.546875 0.015625 0  0.554688 0.015625 0  0.5625 0.015625 0  0.570312 0.015625 0  0.578125 0.015625 0  0.585938 0.015625 0  0.59375 0.015625 0  0.601562 0.015625 0  0.609375 0.015625 0  0.617188 0.015625 0  0.625 0.015625 0  0.632812 0.015625 0  0.640625 0.015625 0  0.648438 0.015625 0  0.65625 0.015625 0  0.664062 0.015625 0  0.671875 0.015625 0  0.679688 0.015625 0  0.6875 0.015625 0  0.695312 0.015625 0  0.703125 0.015625 0  0.710938 0.015625 0  0.71875 0.015625 0  0.726562 0.015625 0  0.734375 0.015625 0  0.742188 0.015625 0  0.75 0.015625 0  0.757812 0.015625 0  0.765625 0.015625 0  0.773438 0.015625 0  0.78125 0.015625 0  0.789062 0.015625 0  0.796875 0.015625 0  0.804688 0.015625 0  0.8125 0.015625 0  0.820312 0.015625 0  0.828125 0.015625 0  0.835938 0.015625 0  0.84375 0.015625 0  0.851562 0.015625 0  0.859375 0.015625 0  0.867188 0.015625 0  0.875 0.015625 0  0.882812 0.015625 0  0.890625 0.015625 0  0.898438 0.015625 0  0.90625 0.015625 0  0.914062 0.015625 0  0.921875 0.015625 0  0.929688 0.015625 0  0.9375 0.015625 0  0.945312 0.015625 0  0.953125 0.015625 0  0.960938 0.015625 0  0.96875 0.015625 0  0.976562 0.015625 0  0.984375 0.015625 0  0.992188 0.015625 0  1 0.015625 0  0 0.0234375 0  0.0078125 0.0234375 0  0.015625 0.0234375 0  0.0234375 0.0234375 0  0.03125 0.0234375 0  0.0390625 0.0234375 0  0.046875 0.0234375 0  0.0546875 0.0234375 0  0.0625 0.0234375 0  0.0703125 0.0234375 0  0.078125 0.0234375 0  0.0859375 0.0234375 0  0.09375 0.0234375 0  0.101562 0.0234375 0  0.109375 0.0234375 0  0.117188 0.0234375 0  0.125 0.0234375 0  0.132812 0.0234375 0  0.140625 0.0234375 0  0.148438 0.0234375 0  0.15625 0.0234375 0  0.164062 0.0234375 0  0.171875 0.0234375 0  0.179688 0.0234375 0  0.1875 0.0234375 0  0.195312 0.0234375 0  0.203125 0.0234375 0  0.210938 0.0234375 0  0.21875 0.0234375 0  0.226562 0.0234375 0  0.234375 0.0234375 0  0.242188 0.0234375 0  0.25 0.0234375 0  0.257812 0.0234375 0  0.265625 0.0234375 0  0.273438 0.0234375 0  0.28125 0.0234375 0  0.289062 0.0234375 0  0.296875 0.0234375 0  0.304688 0.0234375 0  0.3125 0.0234375 0  0.320312 0.0234375 0  0.328125 0.0234375 0  0.335938 0.0234375 0  0.34375 0.0234375 0  0.351562 0.0234375 0  0.359375 0.0234375 0  0.367188 0.0234375 0  0.375 0.0234375 0  0.382812 0.0234375 0  0.390625 0.0234375 0  0.398438 0.0234375 0  0.40625 0.0234375 0  0.414062 0.0234375 0  0.421875 0.0234375 0  0.429688 0.0234375 0  0.4375 0.0234375 0  0.445312 0.0234375 0  0.453125 0.0234375 0  0.460938 0.0234375 0  0.46875 0.0234375 0  0.476562 0.0234375 0  0.484375 0.0234375 0  0.492188 0.0234375 0  0.5 0.0234375 0  0.507812 0.0234375 0  0.515625 0.0234375 0  0.523438 0.0234375 0  0.53125 0.0234375 0  0.539062 0.0234375 0  0.546875 0.0234375 0  0.554688 0.0234375 0  0.5625 0.0234375 0  0.570312 0.0234375 0  0.578125 0.0234375 0  0.585938 0.0234375 0  0.59375 0.0234375 0  0.601562 0.0234375 0  0.609375 0.0234375 0  0.617188 0.0234375 0  0.625 0.0234375 0  0.632812 0.0234375 0  0.640625 0.0234375 0  0.648438 0.0234375 0  0.65625 0.0234375 0  0.664062 0.0234375 0  0.671875 0.0234375 0  0.679688 0.0234375 0  0.6875 0.0234375 0  0.695312 0.0234375 0  0.703125 0.0234375 0  0.710938 0.0234375 0  0.71875 0.0234375 0  0.726562 0.0234375 0  0.734375 0.0234375 0  0.742188 0.0234375 0  0.75 0.0234375 0  0.757812 0.0234375 0  0.765625 0.0234375 0  0.773438 0.0234375 0  0.78125 0.0234375 0  0.789062 0.0234375 0  0.796875 0.0234375 0  0.804688 0.0234375 0  0.8125 0.0234375 0  0.820312 0.0234375 0  0.828125 0.0234375 0  0.835938 0.0234375 0  0.84375 0.0234375 0  0.851562 0.0234375 0  0.859375 0.0234375 0  0.867188 0.0234375 0  0.875 0.0234375 0  0.882812 0.0234375 0  0.890625 0.0234375 0  0.898438 0.0234375 0  0.90625 0.0234375 0  0.914062 0.0234375 0  0.921875 0.0234375 0  0.929688 0.0234375 0  0.9375 0.0234375 0  0.945312 0.0234
[...]
<PointData  Vectors="u"> 
<DataArray  type="Float32"  Name="u"  NumberOfComponents="3" format="ascii">9.785069e-11 -4.264396e-11 0.000000e+00  4.147122e-11 -1.053689e-11 0.000000e+00  1.071797e-11 1.244899e-11 0.000000e+00  -3.307458e-11 -1.437548e-11 0.000000e+00  -2.377598e-11 -7.245181e-11 0.000000e+00  3.651002e-11 -1.441455e-10 0.000000e+00  1.817092e-10 -2.247597e-10 0.000000e+00  4.197009e-10 -3.062162e-10 0.000000e+00  7.488900e-10 -3.824163e-10 0.000000e+00  1.161921e-09 -4.495052e-10 0.000000e+00  1.647898e-09 -5.052521e-10 0.000000e+00  2.193853e-09 -5.485230e-10 0.000000e+00  2.786307e-09 -5.790014e-10 0.000000e+00  3.409938e-09 -5.967217e-10 0.000000e+00  4.052629e-09 -6.024775e-10 0.000000e+00  4.700987e-09 -5.970690e-10 0.000000e+00  5.341483e-09 -5.814222e-10 0.000000e+00  5.963706e-09 -5.568045e-10 0.000000e+00  6.559821e-09 -5.246305e-10 0.000000e+00  7.120998e-09 -4.861713e-10 0.000000e+00  7.638484e-09 -4.426666e-10 0.000000e+00  8.107861e-09 -3.955075e-10 0.000000e+00  8.527578e-09 -3.460697e-10 0.000000e+00  8.894215e-09 -2.955333e-10 0.000000e+00  9.204228e-09 -2.449949e-10 0.000000e+00  9.458874e-09 -1.955636e-10 0.000000e+00  9.661986e-09 -1.482445e-10 0.000000e+00  9.814668e-09 -1.038704e-10 0.000000e+00  9.917556e-09 -6.317902e-11 0.000000e+00  9.975977e-09 -2.682562e-11 0.000000e+00  9.997271e-09 4.673310e-12 0.000000e+00  9.985393e-09 3.092411e-11 0.000000e+00  9.943457e-09 5.162499e-11 0.000000e+00  9.878800e-09 6.660249e-11 0.000000e+00  9.800150e-09 7.581435e-11 0.000000e+00  9.712437e-09 7.929535e-11 0.000000e+00  9.619372e-09 7.716461e-11 0.000000e+00  9.528301e-09 6.966729e-11 0.000000e+00  9.447458e-09 5.714131e-11 0.000000e+00  9.381023e-09 3.997497e-11 0.000000e+00  9.331591e-09 1.863466e-11 0.000000e+00  9.304896e-09 -6.329991e-12 0.000000e+00  9.307281e-09 -3.433175e-11 0.000000e+00  9.340836e-09 -6.473665e-11 0.000000e+00  9.405691e-09 -9.683719e-11 0.000000e+00  9.504879e-09 -1.299130e-10 0.000000e+00  9.642048e-09 -1.632657e-10 0.000000e+00  9.816327e-09 -1.961385e-10 0.000000e+00  1.002452e-08 -2.277103e-10 0.000000e+00  1.026646e-08 -2.572301e-10 0.000000e+00  1.054286e-08 -2.840251e-10 0.000000e+00  1.084958e-08 -3.073512e-10 0.000000e+00  1.117981e-08 -3.264219e-10 0.000000e+00  1.153028e-08 -3.406002e-10 0.000000e+00  1.189912e-08 -3.493683e-10 0.000000e+00  1.227917e-08 -3.521385e-10 0.000000e+00  1.266039e-08 -3.483178e-10 0.000000e+00  1.303717e-08 -3.375152e-10 0.000000e+00  1.340585e-08 -3.194741e-10 0.000000e+00  1.375713e-08 -2.938917e-10 0.000000e+00  1.407888e-08 -2.605085e-10 0.000000e+00  1.436429e-08 -2.192725e-10 0.000000e+00  1.460915e-08 -1.702478e-10 0.000000e+00  1.480344e-08 -1.135014e-10 0.000000e+00  1.493450e-08 -4.920079e-11 0.000000e+00  1.499590e-08 2.233142e-11 0.000000e+00  1.498420e-08 1.007107e-10 0.000000e+00  1.489030e-08 1.854701e-10 0.000000e+00  1.470305e-08 2.759823e-10 0.000000e+00  1.441790e-08 3.715743e-10 0.000000e+00  1.403344e-08 4.715926e-10 0.000000e+00  1.354323e-08 5.751958e-10 0.000000e+00  1.293959e-08 6.813255e-10 0.000000e+00  1.222127e-08 7.890328e-10 0.000000e+00  1.138982e-08 8.974862e-10 0.000000e+00  1.044297e-08 1.005547e-09 0.000000e+00  9.378368e-09 1.111815e-09 0.000000e+00  8.199006e-09 1.215184e-09 0.000000e+00  6.909895e-09 1.314769e-09 0.000000e+00  5.514102e-09 1.409264e-09 0.000000e+00  4.015874e-09 1.497085e-09 0.000000e+00  2.422876e-09 1.577137e-09 0.000000e+00  7.435287e-10 1.648640e-09 0.000000e+00  -1.013300e-09 1.710314e-09 0.000000e+00  -2.836256e-09 1.760634e-09 0.000000e+00  -4.713395e-09 1.798733e-09 0.000000e+00  -6.633652e-09 1.824135e-09 0.000000e+00  -8.582835e-09 1.835851e-09 0.000000e+00  -1.054317e-08 1.832716e-09 0.000000e+00  -1.249981e-08 1.814344e-09 0.000000e+00  -1.444069e-08 1.780778e-09 0.000000e+00  -1.634796e-08 1.731587e-09 0.000000e+00  -1.819951e-08 1.666278e-09 0.000000e+00  -1.998003e-08 1.585149e-09 0.000000e+00  -2.167886e-08 1.488895e-09 0.000000e+00  -2.327727e-08 1.377838e-09 0.000000e+00  -2.475217e-08 1.252341e-09 0.000000e+00  -2.609084e-08 1.113448e-09 0.000000e+00  -2.728676e-08 9.624859e-10 0.000000e+00  -2.832374e-08 8.005457e-10 0.000000e+00  -2.918152e-08 6.288527e-10 0.000000e+00  -2.985303e-08 4.490833e-10 0.000000e+00  -3.033824e-08 2.630215e-10 0.000000e+00  -3.062666e-08 7.240125e-11 0.000000e+00  -3.070453e-08 -1.208288e-10 0.000000e+00  -3.057269e-08 -3.145699e-10 0.000000e+00  -3.023908e-08 -5.067923e-10 0.000000e+00  -2.970145e-08 -6.952954e-10 0.000000e+00  -2.895544e-08 -8.775887e-10 0.000000e+00  -2.801122e-08 -1.051344e-09 0.000000e+00  -2.688531e-08 -1.214442e-09 0.000000e+00  -2.558550e-08 -1.364372e-09 0.000000e+00  -2.411899e-08 -1.498286e-09 0.000000e+00  -2.250590e-08 -1.613781e-09 0.000000e+00  -2.077151e-08 -1.708762e-09 0.000000e+00  -1.893482e-08 -1.780585e-09 0.000000e+00  -1.701582e-08 -1.826327e-09 0.000000e+00  -1.504465e-08 -1.843754e-09 0.000000e+00  -1.305511e-08 -1.831045e-09 0.000000e+00  -1.107772e-08 -1.785918e-09 0.000000e+00  -9.145034e-09 -1.706159e-09 0.000000e+00  -7.296115e-09 -1.590690e-09 0.000000e+00  -5.572013e-09 -1.439574e-09 0.000000e+00  -4.012702e-09 -1.253047e-09 0.000000e+00  -2.660357e-09 -1.032127e-09 0.000000e+00  -1.562509e-09 -7.852588e-10 0.000000e+00  -7.668620e-10 -5.225787e-10 0.000000e+00  -3.298754e-10 -3.199024e-10 0.000000e+00  -2.386417e-10 -3.292508e-10 0.000000e+00  -5.410140e-11 1.746766e-11 0.000000e+00  7.354238e-07 -7.334839e-07 0.000000e+00  1.822514e-06 -6.125783e-07 0.000000e+00  2.108328e-06 2.528117e-08 0.000000e+00  9.617863e-07 8.767112e-07 0.000000e+00  -1.855059e-06 1.782779e-06 0.000000e+00  -6.365668e-06 2.653698e-06 0.000000e+00  -1.246046e-05 3.438788e-06 0.000000e+00  -1.995379e-05 4.110034e-06 0.000000e+00  -2.861765e-05 4.653137e-06 0.000000e+00  -3.820339e-05 5.062740e-06 0.000000e+00  -4.845644e-05 5.339567e-06 0.000000e+00  -5.912661e-05 5.488609e-06 0.000000e+00  -6.997921e-05 5.518219e-06 0.000000e+00  -8.078104e-05 5.437703e-06 0.000000e+00  -9.133780e-05 5.259393e-06 0.000000e+00  -1.014829e-04 4.996524e-06 0.000000e+00  -1.110547e-04 4.661782e-06 0.000000e+00  -1.199128e-04 4.268172e-06 0.000000e+00  -1.279672e-04 3.829617e-06 0.000000e+00  -1.351571e-04 3.359619e-06 0.000000e+00  -1.414188e-04 2.870302e-06 0.000000e+00  -1.467090e-04 2.373230e-06 0.000000e+00  -1.510380e-04 1.879892e-06 0.000000e+00  -1.544392e-04 1.400749e-06 0.000000e+00  -1.569315e-04 9.446588e-07 0.000000e+00  -1.585483e-04 5.195379e-07 0.000000e+00  -1.593737e-04 1.326778e-07 0.000000e+00  -1.595061e-04 -2.098662e-07 0.000000e+00  -1.590169e-04 -5.035154e-07 0.000000e+00  -1.579846e-04 -7.447067e-07 0.000000e+00  -1.565325e-04 -9.307636e-07 0.000000e+00  -1.547882e-04 -1.060194e-06 0.000000e+00  -1.528423e-04 -1.132647e-06 0.000000e+00  -1.507851e-04 -1.148659e-06 0.000000e+00  -1.487441e-04 -1.109718e-06 0.000000e+00  -1.468427e-04 -1.018287e-06 0.000000e+00  -1.451603e-04 -8.775142e-07 0.000000e+00  -1.437697e-04 -6.911955e-07 0.000000e+00  -1.427739e-04 -4.640301e-07 0.000000e+00  -1.422650e-04 -2.014060e-07 0.000000e+00  -1.422876e-04 9.109100e-08 0.000000e+00  -1.428760e-04 4.075060e-07 0.000000e+00  -1.440877e-04 7.410824e-07 0.000000e+00  -1.459653e-04 1.084681e-06 0.000000e+00  -1.485040e-04 1.431447e-06 0.000000e+00  -1.516873e-04 1.774448e-06 0.000000e+00  -1.555160e-04 2.106098e-06 0.000000e+00  -1.599742e-04 2.418757e-06 0.000000e+00  -1.650028e-04 2.705546e-06 0.000000e+00  -1.705317e-04 2.959836e-06 0.000000e+00  -1.765035e-04 3.174537e-06 0.000000e+00  -1.828455e-04 3.342858e-06 0.000000e+00  -1.894492e-04 3.459235e-06 0.000000e+00  -1.961985e-04 3.518669e-06 0.000000e+00  -2.029876e-04 3.515918e-06 0.000000e+00  -2.096983e-04 3.446359e-06 0.000000e+00  -2.161884e-04 3.306971e-06 0.000000e+00  -2.223135e-04 3.095549e-06 0.000000e+00  -2.279378e-04 2.809799e-06 0.000000e+00  -2.329195e-04 2.448262e-06 0.000000e+00  -2.371059e-04 2.011307e-06 0.000000e+00  -2.403491e-04 1.500235e-06 0.000000e+00  -2.425094e-04 9.163132e-07 0.000000e+00  -2.434480e-04 2.617158e-07 0.000000e+00  -2.430300e-04 -4.595008e-07 0.000000e+00  -2.411323e-04 -1.242372e-06 0.000000e+00  -2.376396e-04 -2.082015e-06 0.000000e+00  -2.324446e-04 -2.972698e-06 0.000000e+00  -2.254580e-04 -3.906917e-06 0.000000e+00  -2.166092e-04 -4.876402e-06 0.000000e+00  -2.058342e-04 -5.873101e-06 0.000000e+00  -1.930826e-04 -6.888277e-06 0.000000e+00  -1.783356e-04 -7.911679e-06 0.000000e+00  -1.615977e-04 -8.932542e-06 0.000000e+00  -1.428773e-04 -9.940523e-06 0.000000e+00  -1.222012e-04 -1.092488e-05 0.000000e+00  -9.963798e-05 -1.187376e-05 0.000000e+00  -7.528177e-05 -1.277517e-05 0.000000e+00  -4.922648e-05 -1.361783e-05 0.000000e+00  -2.158572e-05 -1.439051e-05 0.000000e+00  7.478511e-06 -1.508143e-05 0.000000e+00  3.777958e-05 -1.567919e-05 0.000000e+00  6.913862e-05 -1.617359e-05 0.000000e+00  1.013594e-04 -1.655500e-05 0.000000e+00  1.341958e-04 -1.681404e-05 0.000000e+00  1.673832e-04 -1.694236e-05 0.000000e+00  2.006757e-04 -1.693332e-05 0.000000e+00  2.338171e-04 -1.678151e-05 0.000000e+00  2.665066e-04 -1.648255e-05 0.000000e+00  2.984355e-04 -1.603374e-05 0.000000e+00  3.293287e-04 -1.543442e-05 0.000000e+00  3.589124e-04 -1.468564e-05 0.000000e+00  3.868788e-04 -1.379004e-05 0.000000e+00  4.129261e-04 -1.275221e-05 0.000000e+00  4.368030e-04 -1.157873e-05 0.000000e+00  4.582726e-04 -1.027791e-05 0.000000e+00  4.770769e-04 -8.859791e-06 0.000000e+00  4.929794e-04 -7.336149e-06 0.000000e+00  5.058073e-04 -5.720264e-06 0.000000e+00  5.154145e-04 -4.026744e-06 0.000000e+00  5.216465e-04 -2.271720e-06 0.000000e+00  5.243823e-04 -4.726374e-07 0.000000e+00  5.235734e-04 1.352303e-06 0.000000e+00  5.192066e-04 3.184059e-06 0.000000e+00  5.112712e-04 5.002250e-06 0.000000e+00  4.997987e-04 6.785586e-06 0.000000e+00  4.848965e-04 8.512667e-06 0.000000e+00  4.667120e-04 1.016158e-05 0.000000e+00  4.454056e-04 1.170910e-05 0.000000e+00  4.211862e-04 1.313128e-05 0.000000e+00  3.943367e-04 1.440459e-05 0.000000e+00  3.651839e-04 1.550512e-05 0.000000e+00  3.340774e-04 1.640756e-05 0.000000e+00  3.014197e-04 1.708605e-05 0.000000e+00  2.676825e-04 1.751555e-05 0.000000e+00  2.333821e-04 1.767091e-05 0.000000e+00  1.990682e-04 1.752571e-05 0.000000e+00  1.653431e-04 1.705375e-05 0.000000e+00  1.328665e-04 1.623105e-05 0.000000e+00  1.023349e-04 1.503580e-05 0.000000e+00  7.447338e-05 1.344940e-05 0.000000e+00  5.003017e-05 1.146263e-05 0.000000e+00  2.974374e-05 9.086619e-06 0.000000e+00  1.428029e-05 6.373011e-06 0.000000e+00  4.120006e-06 3.461936e-06 0.000000e+00  -6.897268e-07 7.028917e-07 0.000000e+00  -1.051279e-06 -1.049962e-06 0.000000e+00  -2.267140e-10 -2.035608e-10 0.000000e+00  -3.849598e-11 9.916550e-12 0.000000e+00  6.286803e-07 -1.830299e-06 0.000000e+00  1.056929e-06 -1.029234e-06 0.000000e+00  -1.914573e-07 1.289284e-06 0.000000e+00  -3.925974e-06 4.329479e-06 0.000000e+00  -1.051363e-05 7.584697e-06 0.000000e+00  -2.000987e-05 1.074352e-05 0.000000e+00  -3.225693e-05 1.361766e-05 0.000000e+00  -4.696111e-05 1.609599e-05 0.000000e+00  -6.374529e-05 1.811773e-05 0.000000e+00  -8.218680e-05 1.965621e-05 0.000000e+00  -1.018445e-04 2.070862e-05 0.000000e+00  -1.222786e-04 2.128925e-05 0.000000e+00  -1.430727e-04 2.142590e-05 0.000000e+00  -1.638057e-04 2.115076e-05 0.000000e+00  -1.841277e-04 2.050808e-05 0.000000e+00  -2.037367e-04 1.954605e-05 0.000000e+00  -2.223342e-04 1.831112e-05 0.000000e+00  -2.396592e-04 1.685137e-05 0.000000e+00  -2.555446e-04 1.521870e-05 0.000000e+00  -2.698763e-04 1.346362e-05 0.000000e+00  -2.825304e-04 1.163156e-05 0.000000e+00  -2.934207e-04 9.766060e-06 0.000000e+00  -3.025619e-04 7.910581e-06 0.000000e+00  -3.100118e-04 6.104717e-06 0.000000e+00  -3.157975e-04 4.382043e-06 0.000000e+00  -3.199733e-04 2.772692e-06 0.000000e+00  -3.226905e-04 1.304513e-06 0.000000e+00  -3.241267e-04 6.390835e-10 0.000000e+00  -3.244068e-04 -1.121396e-06 0.000000e+00  -3.236690e-04 -2.047839e-06 0.000000e+00  -3.221377e-04 -2.768284e-06 0.000000e+00  -3.200459e-04 -3.276885e-06 0.000000e+00  -3.175547e-04 -3.572136e-06 0.000000e+00  -3.148250e-04 -3.655862e-06 0.000000e+00  -3.120903e-04 -3.533531e-06 0.000000e+00  -3.095769e-04 -3.214387e-06 0.000000e+00  -3.074256e-04 -2.710280e-06 0.000000e+00  -3.057661e-04 -2.035501e-06 0.000000e+00  -3.047869e-04 -1.207823e-06 0.000000e+00  -3.046568e-04 -2.477006e-07 0.000000e+00  -3.054529e-04 8.236781e-07 0.000000e+00  -3.072338e-04 1.983751e-06 0.000000e+00  -3.101042e-04 3.206851e-06 0.000000e+00  -3.141411e-04 4.465823e-06 0.000000e+00  -3.193306e-04 5.734644e-06 0.000000e+00  -3.256375e-04 6.987049e-06 0.000000e+00  -3.330615e-04 8.194228e-06 0.000000e+00  -3.415712e-04 9.327163e-06 0.000000e+00  -3.510528e-04 1.035983e-05 0.000000e+00  -3.613724e-04 1.126717e-05 0.000000e+00  -3.724226e-04 1.202237e-05 0.000000e+00  -3.840670e-04 1.259972e-05 0.000000e+00  -3.961017e-04 1.297830e-05 0.000000e+00  -4.083089e-04 1.313939e-05 0.000000e+00  -4.204920e-04 1.306326e-05 0.000000e+00  -4.324320e-04 1.273255e-05 0.000000e+00  -4.438641e-04 1.213612e-05 0.000000e+00  -4.545200e-04 1.126593e-05 0.000000e+00  -4.641492e-04 1.011354e-05 0.000000e+00  -4.724902e-04 8.673685e-06 0.000000e+00  -4.792611e-04 6.948181e-06 0.000000e+00  -4.841897e-04 4.942373e-06 0.000000e+00  -4.870201e-04 2.661382e-06 0.000000e+00  -4.874980e-04 1.138086e-07 0.000000e+00  -4.853770e-04 -2.684491e-06 0.000000e+00  -4.804333e-04 -5.714231e-06 0.000000e+00  -4.724583e-04 -8.956547e-06 0.000000e+00  -4.612576e-04 -1.238931e-05 0.000000e+00  -4.466723e-04 -1.598358e-05 0.000000e+00  -4.285780e-04 -1.970755e-05 0.000000e+00  -4.068625e-04 -2.353035e-05 0.000000e+00  -3.814392e-04 -2.741850e-05 0.000000e+00  -3.522812e-04 -3.133270e-05 0.000000e+00  -3.194055e-04 -3.523178e-05 0.000000e+00  -2.828354e-04 -3.907630e-05 0.000000e+00  -2.426278e-04 -4.282531e-05 0.000000e+00  -1.989191e-04 -4.643358e-05 0.000000e+00  -1.518936e-04 -4.985547e-05 0.000000e+00  -1.017327e-04 -5.304827e-05 0.000000e+00  -4.865408e-05 -5.596935e-05 0.000000e+00  7.032767e-06 -5.857404e-05 0.000000e+00  6.497285e-05 -6.081929e-05 0.000000e+00  1.248286e-04 -6.266663e-05 0.000000e+00  1.862309e-04 -6.407986e-05 0.000000e+00  2.487163e-04 -6.502366e-05 0.000000e+00  3.117869e-04 -6.546679e-05 0.000000e+00  3.749838e-04 -6.538451e-05 0.000000e+00  4.378300e-04 -6.475681e-05 0.000000e+00  4.997629e-04 -6.356752e-05 0.000000e+00  5.602062e-04 -6.180686e-05 0.000000e+00  6.186500e-04 -5.947291e-05 0.000000e+00  6.745878e-04 -5.657014e-05 0.000000e+00  7.274468e-04 -5.310898e-05 0.000000e+00  7.766667e-04 -4.910732e-05 0.000000e+00  8.217839e-04 -4.459065e-05 0.000000e+00  8.623633e-04 -3.959091e-05 0.000000e+00  8.979268e-04 -3.414653e-05 0.000000e+00  9.280368e-04 -2.830269e-05 0.000000e+00  9.523776e-04 -2.211023e-05 0.000000e+00  9.706841e-04 -1.562498e-05 0.000000e+00  9.826717e-04 -8.908595e-06 0.000000e+00  9.881190e-04 -2.027813e-06 0.000000e+00  9.869428e-04 4.947790e-06 0.000000e+00  9.791255e-04 1.194545e-05 0.000000e+00  9.646512e-04 1.888728e-05 0.000000e+00  9.435832e-04 2.569190e-05 0.000000e+00  9.161287e-04 3.227760e-05 0.000000e+00  8.825698e-04 3.856084e-05 0.000000e+00  8.432092e-04 4.445306e-05 0.000000e+00  7.984397e-04 4.986330e-05 0.000000e+00  7.487943e-04 5.470235e-05 0.000000e+00  6.948854e-04 5.888004e-05 0.000000e+00  6.373643e-04 6.230123e-05 0.000000e+00  5.769775e-04 6.486961e-05 0.000000e+00  5.145989e-04 6.649297e-05 0.000000e+00  4.511792e-04 6.707998e-05 0.000000e+00  3.877207e-04 6.653645e-05 0.000000e+00  3.253130e-04 6.477177e-05 0.000000e+00  2.651383e-04 6.170749e-05 0.000000e+00  2.084268e-04 5.727837e-05 0.000000e+00  1.564299e-04 5.143835e-05 0.000000e+00  1.104052e-04 4.418580e-05 0.000000e+00  7.154804e-05 3.560518e-05 0.000000e+00  4.087260e-05 2.593448e-05 0.000000e+00  1.903434e-05 1.570894e-05 0.000000e+00  6.031010e-06 6.063731e-06 0.000000e+00  6.865882e-07 -6.974241e-07 0.000000e+00  -2.186507e-10 -2.686913e-10 0.000000e+00  1.179216e-11 -2.788167e-11 0.000000e+00  6.588907e-09 -2.149508e-06 0.000000e+00  -1.236950e-06 2.145348e-07 0.000000e+00  -5.138713e-06 5.180311e-06 0.000000e+00  -1.248613e-05 1.144045e-05 0.000000e+00  -2.364470e-05 1.810990e-05 0.000000e+00  -3.865003e-05 2.460398e-05 0.000000e+00  -5.729668e-05 3.054535e-05 0.000000e+00  -7.921094e-05 3.569901e-05 0.000000e+00  -1.039085e-04 3.992910e-05 0.000000e+00  -1.308398e-04 4.317003e-05 0.000000e+00  -1.594247e-04 4.540702e-05 0.000000e+00  -1.890789e-04 4.666258e-05 0.000000e+00  -2.192461e-04 4.698911e-05 0.000000e+00  -2.493543e-04 4.644936e-05 0.000000e+00  -2.789304e-04 4.513298e-05 0.000000e+00  -3.075639e-04 4.313883e-05 0.000000e+00  -3.348421e-04 4.056282e-05 0.000000e+00  -3.604016e-04 3.750493e-05 0.000000e+00  -3.840109e-04 3.407403e-05 0.000000e+00  -4.055107e-04 3.037648e-05 0.000000e+00  -4.247227e-04 2.650810e-05 0.000000e+00  -4.415189e-04 2.256104e-05 0.000000e+00  -4.559159e-04 1.862765e-05 0.000000e+00  -4.679898e-04 1.479228e-05 0.000000e+00  -4.777688e-04 1.112649e-05 0.000000e+00  -4.853186e-04 7.694668e-06 0.000000e+00  -4.908442e-04 4.556514e-06 0.000000e+00  -4.945882e-04 1.761724e-06 0.000000e+00  -4.967142e-04 -6.519840e-07 0.000000e+00  -4.974048e-04 -2.654899e-06 0.000000e+00  -4.969675e-04 -4.224408e-06 0.000000e+00  -4.957226e-04 -5.347676e-06 0.000000e+00  -4.938850e-04 -6.021165e-06 0.000000e+00  -4.916696e-04 -6.248452e-06 0.000000e+00  -4.893977e-04 -6.040948e-06 0.000000e+00  -4.873810e-04 -5.418205e-06 0.000000e+00  -4.858072e-04 -4.405351e-06 0.000000e+00  -4.848485e-04 -3.032744e-06 0.000000e+00  -4.847646e-04 -1.338293e-06 0.000000e+00  -4.857872e-04 6.342820e-07 0.000000e+00  -4.880162e-04 2.839761e-06 0.000000e+00  -4.915256e-04 5.229988e-06 0.000000e+00  -4.964583e-04 7.750041e-06 0.000000e+00  -5.029187e-04 1.034178e-05 0.000000e+00  -5.108802e-04 1.294964e-05 0.000000e+00  -5.202869e-04 1.551760e-05 0.000000e+00  -5.311357e-04 1.798403e-05 0.000000e+00  -5.433804e-04 2.028692e-05 0.000000e+00  -5.568561e-04 2.237084e-05 0.000000e+00  -5.713707e-04 2.418258e-05 0.000000e+00  -5.867728e-04 2.566493e-05 0.000000e+00  -6.028703e-04 2.676318e-05 0.000000e+00  -6.193750e-04 2.743310e-05 0.000000e+00  -6.359800e-04 2.763521e-05 0.000000e+00  -6.524109e-04 2.732775e-05 0.000000e+00  -6.683626e-04 2.647405e-05 0.000000e+00  -6.834644e-04 2.505102e-05 0.000000e+00  -6.973419e-04 2.304228e-05 0.000000e+00  -7.096483e-04 2.043035e-05 0.000000e+00  -7.200210e-04 1.720461e-05 0.000000e+00  -7.280694e-04 1.336983e-05 0.000000e+00  -7.334166e-04 8.938378e-06 0.000000e+00  -7.357110e-04 3.921898e-06 0.000000e+00  -7.346028e-04 -1.660509e-06 0.000000e+00  -7.297540e-04 -7.773964e-06 0.000000e+00  -7.208591e-04 -1.437626e-05 0.000000e+00  -7.076347e-04 -2.142634e-05 0.000000e+00  -6.898171e-04 -2.887620e-05 0.000000e+00  -6.671934e-04 -3.666302e-05 0.000000e+00  -6.396000e-04 -4.471789e-05 0.000000e+00  -6.068898e-04 -5.297421e-05 0.000000e+00  -5.689510e-04 -6.135986e-05 0.000000e+00  -5.257577e-04 -6.979005e-05 0.000000e+00  -4.773454e-04 -7.817609e-05 0.000000e+00  -4.237569e-04 -8.643335e-05 0.000000e+00  -3.650815e-04 -9.447402e-05 0.000000e+00  -3.015218e-04 -1.022011e-04 0.000000e+00  -2.333474e-04 -1.095166e-04 0.000000e+00  -1.608214e-04 -1.163295e-04 0.000000e+00  -8.425612e-05 -1.225489e-04 0.000000e+00  -4.095112e-06 -1.280793e-04 0.000000e+00  7.915491e-05 -1.328292e-04 0.000000e+00  1.650157e-04 -1.367168e-04 0.000000e+00  2.529662e-04 -1.396655e-04 0.000000e+00  3.423506e-04 -1.416005e-04 0.000000e+00  4.324657e-04 -1.424559e-04 0.000000e+00  5.226679e-04 -1.421797e-04 0.000000e+00  6.122894e-04 -1.407303e-04 0.000000e+00  7.005401e-04 -1.380740e-04 0.000000e+00  7.866108e-04 -1.341910e-04 0.000000e+00  8.697913e-04 -1.290782e-04 0.000000e+00  9.493770e-04 -1.227464e-04 0.000000e+00  1.024567e-03 -1.152187e-04 0.000000e+00  1.094578e-03 -1.065343e-04 0.000000e+00  1.158768e-03 -9.674873e-05 0.000000e+00  1.216535e-03 -8.593112e-05 0.000000e+00  1.267213e-03 -7.4