<?xml version="1.0"?>
<VTKFile type="UnstructuredGrid"  version="0.1"  >
<UnstructuredGrid>
<Piece  NumberOfPoints="16641" NumberOfCells="32768">
<Points>
<DataArray  type="Float32"  NumberOfComponents="3"  format="ascii">0 0 0  0.0078125 0 0  0.015625 0 0  0.0234375 0 0  0.03125 0 0  0.0390625 0 0  0.046875 0 0  0.0546875 0 0  0.0625 0 0  0.0703125 0 0  0.078125 0 0  0.0859375 0 0  0.09375 0 0  0.101562 0 0  0.109375 0 0  0.117188 0 0  0.125 0 0  0.132812 0 0  0.140625 0 0  0.148438 0 0  0.15625 0 0  0.164062 0 0  0.171875 0 0  0.179688 0 0  0.1875 0 0  0.195312 0 0  0.203125 0 0  0.210938 0 0  0.21875 0 0  0.226562 0 0  0.234375 0 0  0.242188 0 0  0.25 0 0  0.257812 0 0  0.265625 0 0  0.273438 0 0  0.28125 0 0  0.289062 0 0  0.296875 0 0  0.304688 0 0  0.3125 0 0  0.320312 0 0  0.328125 0 0  0.335938 0 0  0.34375 0 0  0.351562 0 0  0.359375 0 0  0.367188 0 0  0.375 0 0  0.382812 0 0  0.390625 0 0  0.398438 0 0  0.40625 0 0  0.414062 0 0  0.421875 0 0  0.429688 0 0  0.4375 0 0  0.445312 0 0  0.453125 0 0  0.460938 0 0  0.46875 0 0  0.476562 0 0  0.484375 0 0  0.492188 0 0  0.5 0 0  0.507812 0 0  0.515625 0 0  0.523438 0 0  0.53125 0 0  0.539062 0 0  0.546875 0 0  0.554688 0 0  0.5625 0 0  0.570312 0 0  0.578125 0 0  0.585938 0 0  0.59375 0 0  0.601562 0 0  0.609375 0 0  0.617188 0 0  0.625 0 0  0.632812 0 0  0.640625 0 0  0.648438 0 0  0.65625 0 0  0.664062 0 0  0.671875 0 0  0.679688 0 0  0.6875 0 0  0.695312 0 0  0.703125 0 0  0.710938 0 0  0.71875 0 0  0.726562 0 0  0.734375 0 0  0.742188 0 0  0.75 0 0  0.757812 0 0  0.765625 0 0  0.773438 0 0  0.78125 0 0  0.789062 0 0  0.796875 0 0  0.804688 0 0  0.8125 0 0  0.820312 0 0  0.828125 0 0  0.835938 0 0  0.84375 0 0  0.851562 0 0  0.859375 0 0  0.867188 0 0  0.875 0 0  0.882812 0 0  0.890625 0 0  0.898438 0 0  0.90625 0 0  0.914062 0 0  0.921875 0 0  0.929688 0 0  0.9375 0 0  0.945312 0 0  0.953125 0 0  0.960938 0 0  0.96875 0 0  0.976562 0 0  0.984375 0 0  0.992188 0 0  1 0 0  0 0.0078125 0  0.0078125 0.0078125 0  0.015625 0.0078125 0  0.0234375 0.0078125 0  0.03125 0.0078125 0  0.0390625 0.0078125 0  0.046875 0.0078125 0  0.0546875 0.0078125 0  0.0625 0.0078125 0  0.0703125 0.0078125 0  0.078125 0.0078125 0  0.0859375 0.0078125 0  0.09375 0.0078125 0  0.101562 0.0078125 0  0.109375 0.0078125 0  0.117188 0.0078125 0  0.125 0.0078125 0  0.132812 0.0078125 0  0.140625 0.0078125 0  0.148438 0.0078125 0  0.15625 0.0078125 0  0.164062 0.0078125 0  0.171875 0.0078125 0  0.179688 0.0078125 0  0.1875 0.0078125 0  0.195312 0.0078125 0  0.203125 0.0078125 0  0.210938 0.0078125 0  0.21875 0.0078125 0  0.226562 0.0078125 0  0.234375 0.0078125 0  0.242188 0.0078125 0  0.25 0.0078125 0  0.257812 0.0078125 0  0.265625 0.0078125 0  0.273438 0.0078125 0  0.28125 0.0078125 0  0.289062 0.0078125 0  0.296875 0.0078125 0  0.304688 0.0078125 0  0.3125 0.0078125 0  0.320312 0.0078125 0  0.328125 0.0078125 0  0.335938 0.0078125 0  0.34375 0.0078125 0  0.351562 0.0078125 0  0.359375 0.0078125 0  0.367188 0.0078125 0  0.375 0.0078125 0  0.382812 0.0078125 0  0.390625 0.0078125 0  0.398438 0.0078125 0  0.40625 0.0078125 0  0.414062 0.0078125 0  0.421875 0.0078125 0  0.429688 0.0078125 0  0.4375 0.0078125 0  0.445312 0.0078125 0  0.453125 0.0078125 0  0.460938 0.0078125 0  0.46875 0.0078125 0  0.476562 0.0078125 0  0.484375 0.0078125 0  0.492188 0.0078125 0  0.5 0.0078125 0  0.507812 0.0078125 0  0.515625 0.0078125 0  0.523438 0.0078125 0  0.53125 0.0078125 0  0.539062 0.0078125 0  0.546875 0.0078125 0  0.554688 0.0078125 0  0.5625 0.0078125 0  0.570312 0.0078125 0  0.578125 0.0078125 0  0.585938 0.0078125 0  0.59375 0.0078125 0  0.601562 0.0078125 0  0.609375 0.0078125 0  0.617188 0.0078125 0  0.625 0.0078125 0  0.632812 0.0078125 0  0.640625 0.0078125 0  0.648438 0.0078125 0  0.65625 0.0078125 0  0.664062 0.0078125 0  0.671875 0.0078125 0  0.679688 0.0078125 0  0.6875 0.0078125 0  0.695312 0.0078125 0  0.703125 0.0078125 0  0.710938 0.0078125 0  0.71875 0.0078125 0  0.726562 0.0078125 0  0.734375 0.0078125 0  0.742188 0.0078125 0  0.75 0.0078125 0  0.757812 0.0078125 0  0.765625 0.0078125 0  0.773438 0.0078125 0  0.78125 0.0078125 0  0.789062 0.0078125 0  0.796875 0.0078125 0  0.804688 0.0078125 0  0.8125 0.0078125 0  0.820312 0.0078125 0  0.828125 0.0078125 0  0.835938 0.0078125 0  0.84375 0.0078125 0  0.851562 0.0078125 0  0.859375 0.0078125 0  0.867188 0.0078125 0  0.875 0.0078125 0  0.882812 0.0078125 0  0.890625 0.0078125 0  0.898438 0.0078125 0  0.90625 0.0078125 0  0.914062 0.0078125 0  0.921875 0.0078125 0  0.929688 0.0078125 0  0.9375 0.0078125 0  0.945312 0.0078125 0  0.953125 0.0078125 0  0.960938 0.0078125 0  0.96875 0.0078125 0  0.976562 0.0078125 0  0.984375 0.0078125 0  0.992188 0.0078125 0  1 0.0078125 0  0 0.015625 0  0.0078125 0.015625 0  0.015625 0.015625 0  0.0234375 0.015625 0  0.03125 0.015625 0  0.0390625 0.015625 0  0.046875 0.015625 0  0.0546875 0.015625 0  0.0625 0.015625 0  0.0703125 0.015625 0  0.078125 0.015625 0  0.0859375 0.015625 0  0.09375 0.015625 0  0.101562 0.015625 0  0.109375 0.015625 0  0.117188 0.015625 0  0.125 0.015625 0  0.132812 0.015625 0  0.140625 0.015625 0  0.148438 0.015625 0  0.15625 0.015625 0  0.164062 0.015625 0  0.171875 0.015625 0  0.179688 0.015625 0  0.1875 0.015625 0  0.195312 0.015625 0  0.203125 0.015625 0  0.210938 0.015625 0  0.21875 0.015625 0  0.226562 0.015625 0  0.234375 0.015625 0  0.242188 0.015625 0  0.25 0.015625 0  0.257812 0.015625 0  0.265625 0.015625 0  0.273438 0.015625 0  0.28125 0.015625 0  0.289062 0.015625 0  0.296875 0.015625 0  0.304688 0.015625 0  0.3125 0.015625 0  0.320312 0.015625 0  0.328125 0.015625 0  0.335938 0.015625 0  0.34375 0.015625 0  0.351562 0.015625 0  0.359375 0.015625 0  0.367188 0.015625 0  0.375 0.015625 0  0.382812 0.015625 0  0.390625 0.015625 0  0.398438 0.015625 0  0.40625 0.015625 0  0.414062 0.015625 0  0.421875 0.015625 0  0.429688 0.015625 0  0.4375 0.015625 0  0.445312 0.015625 0  0.453125 0.015625 0  0.460938 0.015625 0  0.46875 0.015625 0  0.476562 0.015625 0  0.484375 0.015625 0  0.492188 0.015625 0  0.5 0.015625 0  0.507812 0.015625 0  0.515625 0.015625 0  0.523438 0.015625 0  0.53125 0.015625 0  0.539062 0.015625 0  0.546875 0.015625 0  0.554688 0.015625 0  0.5625 0.015625 0  0.570312 0.015625 0  0.578125 0.015625 0  0.585938 0.015625 0  0.59375 0.015625 0  0.601562 0.015625 0  0.609375 0.015625 0  0.617188 0.015625 0  0.625 0.015625 0  0.632812 0.015625 0  0.640625 0.015625 0  0.648438 0.015625 0  0.65625 0.015625 0  0.664062 0.015625 0  0.671875 0.015625 0  0.679688 0.015625 0  0.6875 0.015625 0  0.695312 0.015625 0  0.703125 0.015625 0  0.710938 0.015625 0  0.71875 0.015625 0  0.726562 0.015625 0  0.734375 0.015625 0  0.742188 0.015625 0  0.75 0.015625 0  0.757812 0.015625 0  0.765625 0.015625 0  0.773438 0.015625 0  0.78125 0.015625 0  0.789062 0.015625 0  0.796875 0.015625 0  0.804688 0.015625 0  0.8125 0.015625 0  0.820312 0.015625 0  0.828125 0.015625 0  0.835938 0.015625 0  0.84375 0.015625 0  0.851562 0.015625 0  0.859375 0.015625 0  0.867188 0.015625 0  0.875 0.015625 0  0.882812 0.015625 0  0.890625 0.015625 0  0.898438 0.015625 0  0.90625 0.015625 0  0.914062 0.015625 0  0.921875 0.015625 0  0.929688 0.015625 0  0.9375 0.015625 0  0.945312 0.015625 0  0.953125 0.015625 0  0.960938 0.015625 0  0.96875 0.015625 0  0.976562 0.015625 0  0.984375 0.015625 0  0.992188 0.015625 0  1 0.015625 0  0 0.0234375 0  0.0078125 0.0234375 0  0.015625 0.0234375 0  0.0234375 0.0234375 0  0.03125 0.0234375 0  0.0390625 0.0234375 0  0.046875 0.0234375 0  0.0546875 0.0234375 0  0.0625 0.0234375 0  0.0703125 0.0234375 0  0.078125 0.0234375 0  0.0859375 0.0234375 0  0.09375 0.0234375 0  0.101562 0.0234375 0  0.109375 0.0234375 0  0.117188 0.0234375 0  0.125 0.0234375 0  0.132812 0.0234375 0  0.140625 0.0234375 0  0.148438 0.0234375 0  0.15625 0.0234375 0  0.164062 0.0234375 0  0.171875 0.0234375 0  0.179688 0.0234375 0  0.1875 0.0234375 0  0.195312 0.0234375 0  0.203125 0.0234375 0  0.210938 0.0234375 0  0.21875 0.0234375 0  0.226562 0.0234375 0  0.234375 0.0234375 0  0.242188 0.0234375 0  0.25 0.0234375 0  0.257812 0.0234375 0  0.265625 0.0234375 0  0.273438 0.0234375 0  0.28125 0.0234375 0  0.289062 0.0234375 0  0.296875 0.0234375 0  0.304688 0.0234375 0  0.3125 0.0234375 0  0.320312 0.0234375 0  0.328125 0.0234375 0  0.335938 0.0234375 0  0.34375 0.0234375 0  0.351562 0.0234375 0  0.359375 0.0234375 0  0.367188 0.0234375 0  0.375 0.0234375 0  0.382812 0.0234375 0  0.390625 0.0234375 0  0.398438 0.0234375 0  0.40625 0.0234375 0  0.414062 0.0234375 0  0.421875 0.0234375 0  0.429688 0.0234375 0  0.4375 0.0234375 0  0.445312 0.0234375 0  0.453125 0.0234375 0  0.460938 0.0234375 0  0.46875 0.0234375 0  0.476562 0.0234375 0  0.484375 0.0234375 0  0.492188 0.0234375 0  0.5 0.0234375 0  0.507812 0.0234375 0  0.515625 0.0234375 0  0.523438 0.0234375 0  0.53125 0.0234375 0  0.539062 0.0234375 0  0.546875 0.0234375 0  0.554688 0.0234375 0  0.5625 0.0234375 0  0.570312 0.0234375 0  0.578125 0.0234375 0  0.585938 0.0234375 0  0.59375 0.0234375 0  0.601562 0.0234375 0  0.609375 0.0234375 0  0.617188 0.0234375 0  0.625 0.0234375 0  0.632812 0.0234375 0  0.640625 0.0234375 0  0.648438 0.0234375 0  0.65625 0.0234375 0  0.664062 0.0234375 0  0.671875 0.0234375 0  0.679688 0.0234375 0  0.6875 0.0234375 0  0.695312 0.0234375 0  0.703125 0.0234375 0  0.710938 0.0234375 0  0.71875 0.0234375 0  0.726562 0.0234375 0  0.734375 0.0234375 0  0.742188 0.0234375 0  0.75 0.0234375 0  0.757812 0.0234375 0  0.765625 0.0234375 0  0.773438 0.0234375 0  0.78125 0.0234375 0  0.789062 0.0234375 0  0.796875 0.0234375 0  0.804688 0.0234375 0  0.8125 0.0234375 0  0.820312 0.0234375 0  0.828125 0.0234375 0  0.835938 0.0234375 0  0.84375 0.0234375 0  0.851562 0.0234375 0  0.859375 0.0234375 0  0.867188 0.0234375 0  0.875 0.0234375 0  0.882812 0.0234375 0  0.890625 0.0234375 0  0.898438 0.0234375 0  0.90625 0.0234375 0  0.914062 0.0234375 0  0.921875 0.0234375 0  0.929688 0.0234375 0  0.9375 0.0234375 0  0.945312 0.0234
[...]
<PointData  Vectors="u"> 
<DataArray  type="Float32"  Name="u"  NumberOfComponents="3" format="ascii">2.971583e-12 1.168261e-12 0.000000e+00  -1.219338e-12 1.663067e-12 0.000000e+00  2.747870e-12 -6.001146e-12 0.000000e+00  5.321094e-12 -1.365709e-11 0.000000e+00  2.144524e-11 -2.578305e-11 0.000000e+00  5.233746e-11 -3.925874e-11 0.000000e+00  9.952533e-11 -5.253213e-11 0.000000e+00  1.621697e-10 -6.456159e-11 0.000000e+00  2.383896e-10 -7.471157e-11 0.000000e+00  3.257984e-10 -8.267756e-11 0.000000e+00  4.217937e-10 -8.835502e-11 0.000000e+00  5.237062e-10 -9.175517e-11 0.000000e+00  6.290460e-10 -9.297060e-11 0.000000e+00  7.350989e-10 -9.210766e-11 0.000000e+00  8.397575e-10 -8.935158e-11 0.000000e+00  9.408383e-10 -8.487365e-11 0.000000e+00  1.036312e-09 -7.885792e-11 0.000000e+00  1.124616e-09 -7.151628e-11 0.000000e+00  1.204404e-09 -6.305847e-11 0.000000e+00  1.274276e-09 -5.367845e-11 0.000000e+00  1.333115e-09 -4.357600e-11 0.000000e+00  1.380367e-09 -3.295903e-11 0.000000e+00  1.415610e-09 -2.201814e-11 0.000000e+00  1.438276e-09 -1.092911e-11 0.000000e+00  1.448142e-09 1.289964e-13 0.000000e+00  1.445550e-09 1.098773e-11 0.000000e+00  1.430844e-09 2.150543e-11 0.000000e+00  1.404164e-09 3.154757e-11 0.000000e+00  1.366037e-09 4.097753e-11 0.000000e+00  1.317475e-09 4.968478e-11 0.000000e+00  1.259332e-09 5.759003e-11 0.000000e+00  1.192251e-09 6.461198e-11 0.000000e+00  1.117288e-09 7.066806e-11 0.000000e+00  1.035837e-09 7.571195e-11 0.000000e+00  9.489774e-10 7.972772e-11 0.000000e+00  8.576129e-10 8.268981e-11 0.000000e+00  7.630690e-10 8.457264e-11 0.000000e+00  6.668282e-10 8.539012e-11 0.000000e+00  5.699279e-10 8.518110e-11 0.000000e+00  4.732907e-10 8.397035e-11 0.000000e+00  3.782566e-10 8.178461e-11 0.000000e+00  2.861381e-10 7.868636e-11 0.000000e+00  1.977136e-10 7.475391e-11 0.000000e+00  1.137228e-10 7.005111e-11 0.000000e+00  3.529537e-11 6.464626e-11 0.000000e+00  -3.662011e-11 5.863372e-11 0.000000e+00  -1.016416e-10 5.211260e-11 0.000000e+00  -1.593579e-10 4.517072e-11 0.000000e+00  -2.090163e-10 3.790304e-11 0.000000e+00  -2.501447e-10 3.041701e-11 0.000000e+00  -2.828083e-10 2.281326e-11 0.000000e+00  -3.069979e-10 1.518696e-11 0.000000e+00  -3.224327e-10 7.642743e-12 0.000000e+00  -3.291427e-10 2.826518e-13 0.000000e+00  -3.276079e-10 -6.808323e-12 0.000000e+00  -3.182208e-10 -1.354386e-11 0.000000e+00  -3.011882e-10 -1.982670e-11 0.000000e+00  -2.769875e-10 -2.557614e-11 0.000000e+00  -2.464112e-10 -3.073614e-11 0.000000e+00  -2.101848e-10 -3.524314e-11 0.000000e+00  -1.689420e-10 -3.902243e-11 0.000000e+00  -1.234877e-10 -4.202641e-11 0.000000e+00  -7.477614e-11 -4.423617e-11 0.000000e+00  -2.374046e-11 -4.562111e-11 0.000000e+00  2.868363e-11 -4.614074e-11 0.000000e+00  8.152748e-11 -4.578703e-11 0.000000e+00  1.338506e-10 -4.458064e-11 0.000000e+00  1.846742e-10 -4.252939e-11 0.000000e+00  2.329314e-10 -3.963373e-11 0.000000e+00  2.776729e-10 -3.592590e-11 0.000000e+00  3.181450e-10 -3.146285e-11 0.000000e+00  3.534995e-10 -2.629083e-11 0.000000e+00  3.827314e-10 -2.045220e-11 0.000000e+00  4.050858e-10 -1.401429e-11 0.000000e+00  4.201423e-10 -7.061868e-12 0.000000e+00  4.273488e-10 3.259438e-13 0.000000e+00  4.259492e-10 8.070155e-12 0.000000e+00  4.155248e-10 1.607878e-11 0.000000e+00  3.960871e-10 2.425199e-11 0.000000e+00  3.675103e-10 3.248839e-11 0.000000e+00  3.294389e-10 4.068386e-11 0.000000e+00  2.818778e-10 4.873634e-11 0.000000e+00  2.253045e-10 5.654647e-11 0.000000e+00  1.600918e-10 6.400576e-11 0.000000e+00  8.637592e-11 7.100126e-11 0.000000e+00  4.600774e-12 7.743823e-11 0.000000e+00  -8.432887e-11 8.323447e-11 0.000000e+00  -1.795444e-10 8.829228e-11 0.000000e+00  -2.804089e-10 9.250973e-11 0.000000e+00  -3.861037e-10 9.581741e-11 0.000000e+00  -4.954097e-10 9.816620e-11 0.000000e+00  -6.070497e-10 9.948790e-11 0.000000e+00  -7.199709e-10 9.971243e-11 0.000000e+00  -8.331229e-10 9.881210e-11 0.000000e+00  -9.451515e-10 9.678396e-11 0.000000e+00  -1.054542e-09 9.360633e-11 0.000000e+00  -1.160003e-09 8.925983e-11 0.000000e+00  -1.260463e-09 8.377081e-11 0.000000e+00  -1.354662e-09 7.719081e-11 0.000000e+00  -1.441088e-09 6.955732e-11 0.000000e+00  -1.518470e-09 6.091516e-11 0.000000e+00  -1.585967e-09 5.135072e-11 0.000000e+00  -1.642667e-09 4.097186e-11 0.000000e+00  -1.687351e-09 2.988077e-11 0.000000e+00  -1.719072e-09 1.819165e-11 0.000000e+00  -1.737483e-09 6.048486e-12 0.000000e+00  -1.742270e-09 -6.390296e-12 0.000000e+00  -1.732803e-09 -1.896150e-11 0.000000e+00  -1.708769e-09 -3.148765e-11 0.000000e+00  -1.670552e-09 -4.377916e-11 0.000000e+00  -1.618641e-09 -5.564104e-11 0.000000e+00  -1.553260e-09 -6.686397e-11 0.000000e+00  -1.474985e-09 -7.722662e-11 0.000000e+00  -1.385096e-09 -8.651666e-11 0.000000e+00  -1.285015e-09 -9.452600e-11 0.000000e+00  -1.175993e-09 -1.010281e-10 0.000000e+00  -1.059636e-09 -1.057947e-10 0.000000e+00  -9.381614e-10 -1.086301e-10 0.000000e+00  -8.139294e-10 -1.093550e-10 0.000000e+00  -6.892273e-10 -1.077837e-10 0.000000e+00  -5.666263e-10 -1.037601e-10 0.000000e+00  -4.491007e-10 -9.719945e-11 0.000000e+00  -3.397050e-10 -8.809120e-11 0.000000e+00  -2.414062e-10 -7.648099e-11 0.000000e+00  -1.572128e-10 -6.252176e-11 0.000000e+00  -9.026576e-11 -4.682950e-11 0.000000e+00  -4.320908e-11 -3.043231e-11 0.000000e+00  -1.795836e-11 -1.802341e-11 0.000000e+00  -1.335315e-11 -1.796249e-11 0.000000e+00  -4.699516e-12 1.965693e-12 0.000000e+00  5.563805e-08 -5.544619e-08 0.000000e+00  5.352830e-08 2.376532e-08 0.000000e+00  -1.518921e-07 1.526163e-07 0.000000e+00  -6.081248e-07 2.895288e-07 0.000000e+00  -1.314181e-06 4.172921e-07 0.000000e+00  -2.246788e-06 5.281824e-07 0.000000e+00  -3.371778e-06 6.189885e-07 0.000000e+00  -4.650500e-06 6.886941e-07 0.000000e+00  -6.043041e-06 7.374261e-07 0.000000e+00  -7.510051e-06 7.659580e-07 0.000000e+00  -9.013819e-06 7.754510e-07 0.000000e+00  -1.051897e-05 7.673026e-07 0.000000e+00  -1.199667e-05 7.433746e-07 0.000000e+00  -1.340587e-05 7.044383e-07 0.000000e+00  -1.472674e-05 6.528162e-07 0.000000e+00  -1.594715e-05 5.907796e-07 0.000000e+00  -1.703859e-05 5.195204e-07 0.000000e+00  -1.797192e-05 4.403162e-07 0.000000e+00  -1.874514e-05 3.553822e-07 0.000000e+00  -1.936305e-05 2.667763e-07 0.000000e+00  -1.980628e-05 1.756477e-07 0.000000e+00  -2.005547e-05 8.318516e-08 0.000000e+00  -2.012450e-05 -8.791333e-09 0.000000e+00  -2.003253e-05 -9.867260e-08 0.000000e+00  -1.976829e-05 -1.855396e-07 0.000000e+00  -1.932081e-05 -2.684686e-07 0.000000e+00  -1.871615e-05 -3.461950e-07 0.000000e+00  -1.798379e-05 -4.176873e-07 0.000000e+00  -1.711832e-05 -4.823659e-07 0.000000e+00  -1.611469e-05 -5.396653e-07 0.000000e+00  -1.500653e-05 -5.889402e-07 0.000000e+00  -1.382893e-05 -6.297761e-07 0.000000e+00  -1.257953e-05 -6.619656e-07 0.000000e+00  -1.125631e-05 -6.853187e-07 0.000000e+00  -9.895633e-06 -6.997912e-07 0.000000e+00  -8.533494e-06 -7.055473e-07 0.000000e+00  -7.167796e-06 -7.027180e-07 0.000000e+00  -5.796750e-06 -6.914416e-07 0.000000e+00  -4.455034e-06 -6.721911e-07 0.000000e+00  -3.175384e-06 -6.456111e-07 0.000000e+00  -1.953623e-06 -6.120859e-07 0.000000e+00  -7.859673e-07 -5.719877e-07 0.000000e+00  2.981594e-07 -5.261769e-07 0.000000e+00  1.272519e-06 -4.756403e-07 0.000000e+00  2.144899e-06 -4.208979e-07 0.000000e+00  2.922448e-06 -3.624336e-07 0.000000e+00  3.583455e-06 -3.013406e-07 0.000000e+00  4.110244e-06 -2.387903e-07 0.000000e+00  4.514757e-06 -1.753073e-07 0.000000e+00  4.807884e-06 -1.113565e-07 0.000000e+00  4.976837e-06 -4.810436e-08 0.000000e+00  5.013326e-06 1.325132e-08 0.000000e+00  4.932975e-06 7.230695e-08 0.000000e+00  4.749788e-06 1.287390e-07 0.000000e+00  4.459909e-06 1.814547e-07 0.000000e+00  4.064061e-06 2.293722e-07 0.000000e+00  3.580167e-06 2.723147e-07 0.000000e+00  3.023848e-06 3.101983e-07 0.000000e+00  2.399124e-06 3.421254e-07 0.000000e+00  1.714358e-06 3.672426e-07 0.000000e+00  9.876769e-07 3.856734e-07 0.000000e+00  2.341814e-07 3.976380e-07 0.000000e+00  -5.361015e-07 4.025177e-07 0.000000e+00  -1.309280e-06 3.997620e-07 0.000000e+00  -2.069539e-06 3.898280e-07 0.000000e+00  -2.804777e-06 3.732615e-07 0.000000e+00  -3.501321e-06 3.497641e-07 0.000000e+00  -4.142272e-06 3.191177e-07 0.000000e+00  -4.716724e-06 2.821009e-07 0.000000e+00  -5.218048e-06 2.395616e-07 0.000000e+00  -5.631431e-06 1.915165e-07 0.000000e+00  -5.939540e-06 1.380637e-07 0.000000e+00  -6.138696e-06 8.024532e-08 0.000000e+00  -6.229854e-06 1.914212e-08 0.000000e+00  -6.199347e-06 -4.496383e-08 0.000000e+00  -6.031676e-06 -1.117185e-07 0.000000e+00  -5.732091e-06 -1.799163e-07 0.000000e+00  -5.310526e-06 -2.483540e-07 0.000000e+00  -4.756203e-06 -3.165732e-07 0.000000e+00  -4.057105e-06 -3.840613e-07 0.000000e+00  -3.228172e-06 -4.495844e-07 0.000000e+00  -2.288725e-06 -5.119591e-07 0.000000e+00  -1.231795e-06 -5.706697e-07 0.000000e+00  -4.962110e-08 -6.251683e-07 0.000000e+00  1.233560e-06 -6.743509e-07 0.000000e+00  2.589838e-06 -7.172156e-07 0.000000e+00  4.022448e-06 -7.533234e-07 0.000000e+00  5.535145e-06 -7.822266e-07 0.000000e+00  7.096067e-06 -8.031157e-07 0.000000e+00  8.670791e-06 -8.153339e-07 0.000000e+00  1.025994e-05 -8.186511e-07 0.000000e+00  1.186457e-05 -8.128487e-07 0.000000e+00  1.344812e-05 -7.975635e-07 0.000000e+00  1.497293e-05 -7.726292e-07 0.000000e+00  1.643911e-05 -7.381352e-07 0.000000e+00  1.784723e-05 -6.941938e-07 0.000000e+00  1.915999e-05 -6.410063e-07 0.000000e+00  2.034083e-05 -5.790024e-07 0.000000e+00  2.139210e-05 -5.086595e-07 0.000000e+00  2.231671e-05 -4.304766e-07 0.000000e+00  2.308139e-05 -3.452825e-07 0.000000e+00  2.365548e-05 -2.541493e-07 0.000000e+00  2.404671e-05 -1.579511e-07 0.000000e+00  2.426337e-05 -5.756606e-08 0.000000e+00  2.428109e-05 4.555664e-08 0.000000e+00  2.408011e-05 1.497326e-07 0.000000e+00  2.367637e-05 2.537539e-07 0.000000e+00  2.308622e-05 3.564409e-07 0.000000e+00  2.229878e-05 4.558139e-07 0.000000e+00  2.130949e-05 5.496909e-07 0.000000e+00  2.014456e-05 6.366666e-07 0.000000e+00  1.883023e-05 7.154082e-07 0.000000e+00  1.737252e-05 7.835808e-07 0.000000e+00  1.578512e-05 8.387138e-07 0.000000e+00  1.410516e-05 8.794157e-07 0.000000e+00  1.236905e-05 9.044180e-07 0.000000e+00  1.060130e-05 9.113251e-07 0.000000e+00  8.834506e-06 8.977571e-07 0.000000e+00  7.114995e-06 8.627229e-07 0.000000e+00  5.486996e-06 8.054865e-07 0.000000e+00  3.990919e-06 7.244432e-07 0.000000e+00  2.672609e-06 6.187500e-07 0.000000e+00  1.577838e-06 4.899970e-07 0.000000e+00  7.439165e-07 3.419559e-07 0.000000e+00  1.994489e-07 1.826226e-07 0.000000e+00  -5.067743e-08 3.236256e-08 0.000000e+00  -6.049094e-08 -6.063004e-08 0.000000e+00  -1.370104e-11 -1.215466e-11 0.000000e+00  6.644428e-13 -2.658011e-12 0.000000e+00  -2.222978e-08 -5.425522e-08 0.000000e+00  -2.473894e-07 2.500124e-07 0.000000e+00  -8.289833e-07 6.994505e-07 0.000000e+00  -1.824719e-06 1.180980e-06 0.000000e+00  -3.236495e-06 1.636461e-06 0.000000e+00  -5.031215e-06 2.036709e-06 0.000000e+00  -7.156027e-06 2.367790e-06 0.000000e+00  -9.547891e-06 2.624008e-06 0.000000e+00  -1.213939e-05 2.804361e-06 0.000000e+00  -1.486243e-05 2.910657e-06 0.000000e+00  -1.765061e-05 2.946460e-06 0.000000e+00  -2.044079e-05 2.916474e-06 0.000000e+00  -2.318180e-05 2.827274e-06 0.000000e+00  -2.579685e-05 2.681461e-06 0.000000e+00  -2.825092e-05 2.487630e-06 0.000000e+00  -3.052310e-05 2.254219e-06 0.000000e+00  -3.255936e-05 1.985589e-06 0.000000e+00  -3.430420e-05 1.686500e-06 0.000000e+00  -3.575486e-05 1.365346e-06 0.000000e+00  -3.692128e-05 1.029900e-06 0.000000e+00  -3.776576e-05 6.844614e-07 0.000000e+00  -3.825040e-05 3.335460e-07 0.000000e+00  -3.840187e-05 -1.588015e-08 0.000000e+00  -3.825672e-05 -3.576990e-07 0.000000e+00  -3.779209e-05 -6.884424e-07 0.000000e+00  -3.698549e-05 -1.004560e-06 0.000000e+00  -3.588639e-05 -1.301176e-06 0.000000e+00  -3.455067e-05 -1.574354e-06 0.000000e+00  -3.296632e-05 -1.821894e-06 0.000000e+00  -3.112194e-05 -2.041590e-06 0.000000e+00  -2.908123e-05 -2.230925e-06 0.000000e+00  -2.691074e-05 -2.388312e-06 0.000000e+00  -2.460419e-05 -2.512956e-06 0.000000e+00  -2.215597e-05 -2.604074e-06 0.000000e+00  -1.963509e-05 -2.661450e-06 0.000000e+00  -1.710988e-05 -2.685711e-06 0.000000e+00  -1.457471e-05 -2.677344e-06 0.000000e+00  -1.202461e-05 -2.636817e-06 0.000000e+00  -9.525590e-06 -2.565903e-06 0.000000e+00  -7.139965e-06 -2.467072e-06 0.000000e+00  -4.858421e-06 -2.341772e-06 0.000000e+00  -2.672529e-06 -2.191366e-06 0.000000e+00  -6.385301e-07 -2.019124e-06 0.000000e+00  1.193389e-06 -1.828834e-06 0.000000e+00  2.839048e-06 -1.622454e-06 0.000000e+00  4.312880e-06 -1.401781e-06 0.000000e+00  5.573069e-06 -1.170991e-06 0.000000e+00  6.585504e-06 -9.345837e-07 0.000000e+00  7.373504e-06 -6.945318e-07 0.000000e+00  7.958197e-06 -4.525632e-07 0.000000e+00  8.314538e-06 -2.131516e-07 0.000000e+00  8.426088e-06 1.909836e-08 0.000000e+00  8.322776e-06 2.426820e-07 0.000000e+00  8.031247e-06 4.564058e-07 0.000000e+00  7.543303e-06 6.560655e-07 0.000000e+00  6.859544e-06 8.374966e-07 0.000000e+00  6.013906e-06 1.000067e-06 0.000000e+00  5.035754e-06 1.143494e-06 0.000000e+00  3.931813e-06 1.264309e-06 0.000000e+00  2.717190e-06 1.359222e-06 0.000000e+00  1.425910e-06 1.428752e-06 0.000000e+00  8.605774e-08 1.473777e-06 0.000000e+00  -1.284173e-06 1.491884e-06 0.000000e+00  -2.659091e-06 1.480944e-06 0.000000e+00  -4.009285e-06 1.442757e-06 0.000000e+00  -5.312574e-06 1.379436e-06 0.000000e+00  -6.543693e-06 1.289791e-06 0.000000e+00  -7.671059e-06 1.172965e-06 0.000000e+00  -8.674728e-06 1.031987e-06 0.000000e+00  -9.543026e-06 8.701211e-07 0.000000e+00  -1.024828e-05 6.873742e-07 0.000000e+00  -1.075782e-05 4.841018e-07 0.000000e+00  -1.106548e-05 2.643411e-07 0.000000e+00  -1.117400e-05 3.223452e-08 0.000000e+00  -1.105756e-05 -2.111999e-07 0.000000e+00  -1.068666e-05 -4.646256e-07 0.000000e+00  -1.007203e-05 -7.233856e-07 0.000000e+00  -9.233389e-06 -9.828812e-07 0.000000e+00  -8.150020e-06 -1.241425e-06 0.000000e+00  -6.798650e-06 -1.497070e-06 0.000000e+00  -5.208295e-06 -1.745062e-06 0.000000e+00  -3.416334e-06 -1.980892e-06 0.000000e+00  -1.408867e-06 -2.202655e-06 0.000000e+00  8.296984e-07 -2.408270e-06 0.000000e+00  3.252878e-06 -2.593488e-06 0.000000e+00  5.807198e-06 -2.754511e-06 0.000000e+00  8.499884e-06 -2.889726e-06 0.000000e+00  1.133931e-05 -2.997436e-06 0.000000e+00  1.426472e-05 -3.074531e-06 0.000000e+00  1.721052e-05 -3.118543e-06 0.000000e+00  2.017935e-05 -3.128659e-06 0.000000e+00  2.317477e-05 -3.104051e-06 0.000000e+00  2.612730e-05 -3.043330e-06 0.000000e+00  2.896545e-05 -2.945913e-06 0.000000e+00  3.169113e-05 -2.812199e-06 0.000000e+00  3.430717e-05 -2.642623e-06 0.000000e+00  3.674290e-05 -2.437959e-06 0.000000e+00  3.892899e-05 -2.199907e-06 0.000000e+00  4.087175e-05 -1.930335e-06 0.000000e+00  4.257855e-05 -1.631144e-06 0.000000e+00  4.398631e-05 -1.305514e-06 0.000000e+00  4.503698e-05 -9.575877e-07 0.000000e+00  4.574697e-05 -5.907255e-07 0.000000e+00  4.613369e-05 -2.082617e-07 0.000000e+00  4.615086e-05 1.842637e-07 0.000000e+00  4.576085e-05 5.803911e-07 0.000000e+00  4.499534e-05 9.755279e-07 0.000000e+00  4.388663e-05 1.365219e-06 0.000000e+00  4.241356e-05 1.741928e-06 0.000000e+00  4.056686e-05 2.097356e-06 0.000000e+00  3.839698e-05 2.426234e-06 0.000000e+00  3.595415e-05 2.723587e-06 0.000000e+00  3.324841e-05 2.980614e-06 0.000000e+00  3.030396e-05 3.188065e-06 0.000000e+00  2.719062e-05 3.340895e-06 0.000000e+00  2.397635e-05 3.434563e-06 0.000000e+00  2.070431e-05 3.460317e-06 0.000000e+00  1.743198e-05 3.409682e-06 0.000000e+00  1.424370e-05 3.279659e-06 0.000000e+00  1.121867e-05 3.068385e-06 0.000000e+00  8.425230e-06 2.771084e-06 0.000000e+00  5.939678e-06 2.386434e-06 0.000000e+00  3.838124e-06 1.922679e-06 0.000000e+00  2.178744e-06 1.396125e-06 0.000000e+00  1.000801e-06 8.369492e-07 0.000000e+00  3.084406e-07 3.112057e-07 0.000000e+00  3.184753e-08 -5.046095e-08 0.000000e+00  -1.350151e-11 -1.609742e-11 0.000000e+00  4.190561e-12 -3.976824e-12 0.000000e+00  -1.496885e-07 1.480975e-07 0.000000e+00  -6.949369e-07 8.313469e-07 0.000000e+00  -1.742715e-06 1.745918e-06 0.000000e+00  -3.333337e-06 2.714237e-06 0.000000e+00  -5.459722e-06 3.634020e-06 0.000000e+00  -8.078973e-06 4.448077e-06 0.000000e+00  -1.112515e-05 5.125995e-06 0.000000e+00  -1.451851e-05 5.653470e-06 0.000000e+00  -1.817224e-05 6.026138e-06 0.000000e+00  -2.199727e-05 6.245945e-06 0.000000e+00  -2.590558e-05 6.318966e-06 0.000000e+00  -2.981259e-05 6.254053e-06 0.000000e+00  -3.365034e-05 6.064356e-06 0.000000e+00  -3.731094e-05 5.754679e-06 0.000000e+00  -4.074847e-05 5.342896e-06 0.000000e+00  -4.393632e-05 4.846705e-06 0.000000e+00  -4.679777e-05 4.275084e-06 0.000000e+00  -4.925359e-05 3.637938e-06 0.000000e+00  -5.130165e-05 2.953125e-06 0.000000e+00  -5.295756e-05 2.237223e-06 0.000000e+00  -5.416643e-05 1.499301e-06 0.000000e+00  -5.487279e-05 7.489377e-07 0.000000e+00  -5.511535e-05 1.089391e-09 0.000000e+00  -5.494675e-05 -7.311005e-07 0.000000e+00  -5.433240e-05 -1.440239e-06 0.000000e+00  -5.323810e-05 -2.118721e-06 0.000000e+00  -5.173452e-05 -2.756014e-06 0.000000e+00  -4.990143e-05 -3.343622e-06 0.000000e+00  -4.771932e-05 -3.876814e-06 0.000000e+00  -4.516947e-05 -4.350815e-06 0.000000e+00  -4.234270e-05 -4.760144e-06 0.000000e+00  -3.933384e-05 -5.101350e-06 0.000000e+00  -3.613149e-05 -5.372683e-06 0.000000e+00  -3.272522e-05 -5.572391e-06 0.000000e+00  -2.921344e-05 -5.699953e-06 0.000000e+00  -2.569365e-05 -5.756689e-06 0.000000e+00  -2.215553e-05 -5.743583e-06 0.000000e+00  -1.858983e-05 -5.661554e-06 0.000000e+00  -1.509089e-05 -5.514381e-06 0.000000e+00  -1.174784e-05 -5.307373e-06 0.000000e+00  -8.545469e-06 -5.043563e-06 0.000000e+00  -5.470001e-06 -4.725787e-06 0.000000e+00  -2.602161e-06 -4.361075e-06 0.000000e+00  -1.401962e-08 -3.957594e-06 0.000000e+00  2.318434e-06 -3.519471e-06 0.000000e+00  4.417007e-06 -3.050465e-06 0.000000e+00  6.221260e-06 -2.559586e-06 0.000000e+00  7.681793e-06 -2.056562e-06 0.000000e+00  8.832783e-06 -1.545540e-06 0.000000e+00  9.705013e-06 -1.030132e-06 0.000000e+00  1.026173e-05 -5.200128e-07 0.000000e+00  1.047852e-05 -2.515534e-08 0.000000e+00  1.039847e-05 4.513017e-07 0.000000e+00  1.005966e-05 9.069001e-07 0.000000e+00  9.449212e-06 1.332524e-06 0.000000e+00  8.566910e-06 1.719131e-06 0.000000e+00  7.461039e-06 2.065465e-06 0.000000e+00  6.173083e-06 2.371030e-06 0.000000e+00  4.711384e-06 2.628276e-06 0.000000e+00  3.096418e-06 2.830034e-06 0.000000e+00  1.376175e-06 2.977532e-06 0.000000e+00  -4.100895e-07 3.072761e-06 0.000000e+00  -2.237599e-06 3.110443e-06 0.000000e+00  -4.070663e-06 3.085898e-06 0.000000e+00  -5.868187e-06 3.003108e-06 0.000000e+00  -7.599628e-06 2.866725e-06 0.000000e+00  -9.229906e-06 2.674089e-06 0.000000e+00  -1.071469e-05 2.423259e-06 0.000000e+00  -1.202658e-05 2.120861e-06 0.000000e+00  -1.315017e-05 1.774010e-06 0.000000e+00  -1.404661e-05 1.382619e-06 0.000000e+00  -1.466966e-05 9.473581e-07 0.000000e+00  -1.501162e-05 4.770086e-07 0.000000e+00  -1.507768e-05 -1.943660e-08 0.000000e+00  -1.483118e-05 -5.398923e-07 0.000000e+00  -1.422991e-05 -1.081577e-06 0.000000e+00  -1.329023e-05 -1.634392e-06 0.000000e+00  -1.204143e-05 -2.188386e-06 0.000000e+00  -1.045358e-05 -2.740034e-06 0.000000e+00  -8.492841e-06 -3.285244e-06 0.000000e+00  -6.201470e-06 -3.813727e-06 0.000000e+00  -3.633710e-06 -4.315753e-06 0.000000e+00  -7.687852e-07 -4.787332e-06 0.000000e+00  2.416743e-06 -5.224078e-06 0.000000e+00  5.855961e-06 -5.616822e-06 0.000000e+00  9.471966e-06 -5.957391e-06 0.000000e+00  1.327658e-05 -6.242425e-06 0.000000e+00  1.728347e-05 -6.468354e-06 0.000000e+00  2.140567e-05 -6.628491e-06 0.000000e+00  2.554929e-05 -6.717556e-06 0.000000e+00  2.972011e-05 -6.733900e-06 0.000000e+00  3.392536e-05 -6.675818e-06 0.000000e+00  3.806589e-05 -6.540346e-06 0.000000e+00  4.203966e-05 -6.326286e-06 0.000000e+00  4.585178e-05 -6.034581e-06 0.000000e+00  4.950872e-05 -5.666218e-06 0.000000e+00  5.290975e-05 -5.222912e-06 0.00000