<?xml version="1.0"?>
<VTKFile type="UnstructuredGrid"  version="0.1"  >
<UnstructuredGrid>
<Piece  NumberOfPoints="16641" NumberOfCells="32768">
<Points>
<DataArray  type="Float32"  NumberOfComponents="3"  format="ascii">0 0 0  0.0078125 0 0  0.015625 0 0  0.0234375 0 0  0.03125 0 0  0.0390625 0 0  0.046875 0 0  0.0546875 0 0  0.0625 0 0  0.0703125 0 0  0.078125 0 0  0.0859375 0 0  0.09375 0 0  0.101562 0 0  0.109375 0 0  0.117188 0 0  0.125 0 0  0.132812 0 0  0.140625 0 0  0.148438 0 0  0.15625 0 0  0.164062 0 0  0.171875 0 0  0.179688 0 0  0.1875 0 0  0.195312 0 0  0.203125 0 0  0.210938 0 0  0.21875 0 0  0.226562 0 0  0.234375 0 0  0.242188 0 0  0.25 0 0  0.257812 0 0  0.265625 0 0  0.273438 0 0  0.28125 0 0  0.289062 0 0  0.296875 0 0  0.304688 0 0  0.3125 0 0  0.320312 0 0  0.328125 0 0  0.335938 0 0  0.34375 0 0  0.351562 0 0  0.359375 0 0  0.367188 0 0  0.375 0 0  0.382812 0 0  0.390625 0 0  0.398438 0 0  0.40625 0 0  0.414062 0 0  0.421875 0 0  0.429688 0 0  0.4375 0 0  0.445312 0 0  0.453125 0 0  0.460938 0 0  0.46875 0 0  0.476562 0 0  0.484375 0 0  0.492188 0 0  0.5 0 0  0.507812 0 0  0.515625 0 0  0.523438 0 0  0.53125 0 0  0.539062 0 0  0.546875 0 0  0.554688 0 0  0.5625 0 0  0.570312 0 0  0.578125 0 0  0.585938 0 0  0.59375 0 0  0.601562 0 0  0.609375 0 0  0.617188 0 0  0.625 0 0  0.632812 0 0  0.640625 0 0  0.648438 0 0  0.65625 0 0  0.664062 0 0  0.671875 0 0  0.679688 0 0  0.6875 0 0  0.695312 0 0  0.703125 0 0  0.710938 0 0  0.71875 0 0  0.726562 0 0  0.734375 0 0  0.742188 0 0  0.75 0 0  0.757812 0 0  0.765625 0 0  0.773438 0 0  0.78125 0 0  0.789062 0 0  0.796875 0 0  0.804688 0 0  0.8125 0 0  0.820312 0 0  0.828125 0 0  0.835938 0 0  0.84375 0 0  0.851562 0 0  0.859375 0 0  0.867188 0 0  0.875 0 0  0.882812 0 0  0.890625 0 0  0.898438 0 0  0.90625 0 0  0.914062 0 0  0.921875 0 0  0.929688 0 0  0.9375 0 0  0.945312 0 0  0.953125 0 0  0.960938 0 0  0.96875 0 0  0.976562 0 0  0.984375 0 0  0.992188 0 0  1 0 0  0 0.0078125 0  0.0078125 0.0078125 0  0.015625 0.0078125 0  0.0234375 0.0078125 0  0.03125 0.0078125 0  0.0390625 0.0078125 0  0.046875 0.0078125 0  0.0546875 0.0078125 0  0.0625 0.0078125 0  0.0703125 0.0078125 0  0.078125 0.0078125 0  0.0859375 0.0078125 0  0.09375 0.0078125 0  0.101562 0.0078125 0  0.109375 0.0078125 0  0.117188 0.0078125 0  0.125 0.0078125 0  0.132812 0.0078125 0  0.140625 0.0078125 0  0.148438 0.0078125 0  0.15625 0.0078125 0  0.164062 0.0078125 0  0.171875 0.0078125 0  0.179688 0.0078125 0  0.1875 0.0078125 0  0.195312 0.0078125 0  0.203125 0.0078125 0  0.210938 0.0078125 0  0.21875 0.0078125 0  0.226562 0.0078125 0  0.234375 0.0078125 0  0.242188 0.0078125 0  0.25 0.0078125 0  0.257812 0.0078125 0  0.265625 0.0078125 0  0.273438 0.0078125 0  0.28125 0.0078125 0  0.289062 0.0078125 0  0.296875 0.0078125 0  0.304688 0.0078125 0  0.3125 0.0078125 0  0.320312 0.0078125 0  0.328125 0.0078125 0  0.335938 0.0078125 0  0.34375 0.0078125 0  0.351562 0.0078125 0  0.359375 0.0078125 0  0.367188 0.0078125 0  0.375 0.0078125 0  0.382812 0.0078125 0  0.390625 0.0078125 0  0.398438 0.0078125 0  0.40625 0.0078125 0  0.414062 0.0078125 0  0.421875 0.0078125 0  0.429688 0.0078125 0  0.4375 0.0078125 0  0.445312 0.0078125 0  0.453125 0.0078125 0  0.460938 0.0078125 0  0.46875 0.0078125 0  0.476562 0.0078125 0  0.484375 0.0078125 0  0.492188 0.0078125 0  0.5 0.0078125 0  0.507812 0.0078125 0  0.515625 0.0078125 0  0.523438 0.0078125 0  0.53125 0.0078125 0  0.539062 0.0078125 0  0.546875 0.0078125 0  0.554688 0.0078125 0  0.5625 0.0078125 0  0.570312 0.0078125 0  0.578125 0.0078125 0  0.585938 0.0078125 0  0.59375 0.0078125 0  0.601562 0.0078125 0  0.609375 0.0078125 0  0.617188 0.0078125 0  0.625 0.0078125 0  0.632812 0.0078125 0  0.640625 0.0078125 0  0.648438 0.0078125 0  0.65625 0.0078125 0  0.664062 0.0078125 0  0.671875 0.0078125 0  0.679688 0.0078125 0  0.6875 0.0078125 0  0.695312 0.0078125 0  0.703125 0.0078125 0  0.710938 0.0078125 0  0.71875 0.0078125 0  0.726562 0.0078125 0  0.734375 0.0078125 0  0.742188 0.0078125 0  0.75 0.0078125 0  0.757812 0.0078125 0  0.765625 0.0078125 0  0.773438 0.0078125 0  0.78125 0.0078125 0  0.789062 0.0078125 0  0.796875 0.0078125 0  0.804688 0.0078125 0  0.8125 0.0078125 0  0.820312 0.0078125 0  0.828125 0.0078125 0  0.835938 0.0078125 0  0.84375 0.0078125 0  0.851562 0.0078125 0  0.859375 0.0078125 0  0.867188 0.0078125 0  0.875 0.0078125 0  0.882812 0.0078125 0  0.890625 0.0078125 0  0.898438 0.0078125 0  0.90625 0.0078125 0  0.914062 0.0078125 0  0.921875 0.0078125 0  0.929688 0.0078125 0  0.9375 0.0078125 0  0.945312 0.0078125 0  0.953125 0.0078125 0  0.960938 0.0078125 0  0.96875 0.0078125 0  0.976562 0.0078125 0  0.984375 0.0078125 0  0.992188 0.0078125 0  1 0.0078125 0  0 0.015625 0  0.0078125 0.015625 0  0.015625 0.015625 0  0.0234375 0.015625 0  0.03125 0.015625 0  0.0390625 0.015625 0  0.046875 0.015625 0  0.0546875 0.015625 0  0.0625 0.015625 0  0.0703125 0.015625 0  0.078125 0.015625 0  0.0859375 0.015625 0  0.09375 0.015625 0  0.101562 0.015625 0  0.109375 0.015625 0  0.117188 0.015625 0  0.125 0.015625 0  0.132812 0.015625 0  0.140625 0.015625 0  0.148438 0.015625 0  0.15625 0.015625 0  0.164062 0.015625 0  0.171875 0.015625 0  0.179688 0.015625 0  0.1875 0.015625 0  0.195312 0.015625 0  0.203125 0.015625 0  0.210938 0.015625 0  0.21875 0.015625 0  0.226562 0.015625 0  0.234375 0.015625 0  0.242188 0.015625 0  0.25 0.015625 0  0.257812 0.015625 0  0.265625 0.015625 0  0.273438 0.015625 0  0.28125 0.015625 0  0.289062 0.015625 0  0.296875 0.015625 0  0.304688 0.015625 0  0.3125 0.015625 0  0.320312 0.015625 0  0.328125 0.015625 0  0.335938 0.015625 0  0.34375 0.015625 0  0.351562 0.015625 0  0.359375 0.015625 0  0.367188 0.015625 0  0.375 0.015625 0  0.382812 0.015625 0  0.390625 0.015625 0  0.398438 0.015625 0  0.40625 0.015625 0  0.414062 0.015625 0  0.421875 0.015625 0  0.429688 0.015625 0  0.4375 0.015625 0  0.445312 0.015625 0  0.453125 0.015625 0  0.460938 0.015625 0  0.46875 0.015625 0  0.476562 0.015625 0  0.484375 0.015625 0  0.492188 0.015625 0  0.5 0.015625 0  0.507812 0.015625 0  0.515625 0.015625 0  0.523438 0.015625 0  0.53125 0.015625 0  0.539062 0.015625 0  0.546875 0.015625 0  0.554688 0.015625 0  0.5625 0.015625 0  0.570312 0.015625 0  0.578125 0.015625 0  0.585938 0.015625 0  0.59375 0.015625 0  0.601562 0.015625 0  0.609375 0.015625 0  0.617188 0.015625 0  0.625 0.015625 0  0.632812 0.015625 0  0.640625 0.015625 0  0.648438 0.015625 0  0.65625 0.015625 0  0.664062 0.015625 0  0.671875 0.015625 0  0.679688 0.015625 0  0.6875 0.015625 0  0.695312 0.015625 0  0.703125 0.015625 0  0.710938 0.015625 0  0.71875 0.015625 0  0.726562 0.015625 0  0.734375 0.015625 0  0.742188 0.015625 0  0.75 0.015625 0  0.757812 0.015625 0  0.765625 0.015625 0  0.773438 0.015625 0  0.78125 0.015625 0  0.789062 0.015625 0  0.796875 0.015625 0  0.804688 0.015625 0  0.8125 0.015625 0  0.820312 0.015625 0  0.828125 0.015625 0  0.835938 0.015625 0  0.84375 0.015625 0  0.851562 0.015625 0  0.859375 0.015625 0  0.867188 0.015625 0  0.875 0.015625 0  0.882812 0.015625 0  0.890625 0.015625 0  0.898438 0.015625 0  0.90625 0.015625 0  0.914062 0.015625 0  0.921875 0.015625 0  0.929688 0.015625 0  0.9375 0.015625 0  0.945312 0.015625 0  0.953125 0.015625 0  0.960938 0.015625 0  0.96875 0.015625 0  0.976562 0.015625 0  0.984375 0.015625 0  0.992188 0.015625 0  1 0.015625 0  0 0.0234375 0  0.0078125 0.0234375 0  0.015625 0.0234375 0  0.0234375 0.0234375 0  0.03125 0.0234375 0  0.0390625 0.0234375 0  0.046875 0.0234375 0  0.0546875 0.0234375 0  0.0625 0.0234375 0  0.0703125 0.0234375 0  0.078125 0.0234375 0  0.0859375 0.0234375 0  0.09375 0.0234375 0  0.101562 0.0234375 0  0.109375 0.0234375 0  0.117188 0.0234375 0  0.125 0.0234375 0  0.132812 0.0234375 0  0.140625 0.0234375 0  0.148438 0.0234375 0  0.15625 0.0234375 0  0.164062 0.0234375 0  0.171875 0.0234375 0  0.179688 0.0234375 0  0.1875 0.0234375 0  0.195312 0.0234375 0  0.203125 0.0234375 0  0.210938 0.0234375 0  0.21875 0.0234375 0  0.226562 0.0234375 0  0.234375 0.0234375 0  0.242188 0.0234375 0  0.25 0.0234375 0  0.257812 0.0234375 0  0.265625 0.0234375 0  0.273438 0.0234375 0  0.28125 0.0234375 0  0.289062 0.0234375 0  0.296875 0.0234375 0  0.304688 0.0234375 0  0.3125 0.0234375 0  0.320312 0.0234375 0  0.328125 0.0234375 0  0.335938 0.0234375 0  0.34375 0.0234375 0  0.351562 0.0234375 0  0.359375 0.0234375 0  0.367188 0.0234375 0  0.375 0.0234375 0  0.382812 0.0234375 0  0.390625 0.0234375 0  0.398438 0.0234375 0  0.40625 0.0234375 0  0.414062 0.0234375 0  0.421875 0.0234375 0  0.429688 0.0234375 0  0.4375 0.0234375 0  0.445312 0.0234375 0  0.453125 0.0234375 0  0.460938 0.0234375 0  0.46875 0.0234375 0  0.476562 0.0234375 0  0.484375 0.0234375 0  0.492188 0.0234375 0  0.5 0.0234375 0  0.507812 0.0234375 0  0.515625 0.0234375 0  0.523438 0.0234375 0  0.53125 0.0234375 0  0.539062 0.0234375 0  0.546875 0.0234375 0  0.554688 0.0234375 0  0.5625 0.0234375 0  0.570312 0.0234375 0  0.578125 0.0234375 0  0.585938 0.0234375 0  0.59375 0.0234375 0  0.601562 0.0234375 0  0.609375 0.0234375 0  0.617188 0.0234375 0  0.625 0.0234375 0  0.632812 0.0234375 0  0.640625 0.0234375 0  0.648438 0.0234375 0  0.65625 0.0234375 0  0.664062 0.0234375 0  0.671875 0.0234375 0  0.679688 0.0234375 0  0.6875 0.0234375 0  0.695312 0.0234375 0  0.703125 0.0234375 0  0.710938 0.0234375 0  0.71875 0.0234375 0  0.726562 0.0234375 0  0.734375 0.0234375 0  0.742188 0.0234375 0  0.75 0.0234375 0  0.757812 0.0234375 0  0.765625 0.0234375 0  0.773438 0.0234375 0  0.78125 0.0234375 0  0.789062 0.0234375 0  0.796875 0.0234375 0  0.804688 0.0234375 0  0.8125 0.0234375 0  0.820312 0.0234375 0  0.828125 0.0234375 0  0.835938 0.0234375 0  0.84375 0.0234375 0  0.851562 0.0234375 0  0.859375 0.0234375 0  0.867188 0.0234375 0  0.875 0.0234375 0  0.882812 0.0234375 0  0.890625 0.0234375 0  0.898438 0.0234375 0  0.90625 0.0234375 0  0.914062 0.0234375 0  0.921875 0.0234375 0  0.929688 0.0234375 0  0.9375 0.0234375 0  0.945312 0.0234
[...]
<PointData  Vectors="u"> 
<DataArray  type="Float32"  Name="u"  NumberOfComponents="3" format="ascii">2.971616e-12 1.168221e-12 0.000000e+00  -1.219309e-12 1.663049e-12 0.000000e+00  2.747851e-12 -6.001081e-12 0.000000e+00  5.321031e-12 -1.365700e-11 0.000000e+00  2.144508e-11 -2.578293e-11 0.000000e+00  5.233715e-11 -3.925858e-11 0.000000e+00  9.952483e-11 -5.253193e-11 0.000000e+00  1.621690e-10 -6.456138e-11 0.000000e+00  2.383886e-10 -7.471135e-11 0.000000e+00  3.257972e-10 -8.267735e-11 0.000000e+00  4.217922e-10 -8.835482e-11 0.000000e+00  5.237045e-10 -9.175499e-11 0.000000e+00  6.290441e-10 -9.297045e-11 0.000000e+00  7.350969e-10 -9.210755e-11 0.000000e+00  8.397553e-10 -8.935151e-11 0.000000e+00  9.408361e-10 -8.487362e-11 0.000000e+00  1.036310e-09 -7.885794e-11 0.000000e+00  1.124614e-09 -7.151634e-11 0.000000e+00  1.204402e-09 -6.305858e-11 0.000000e+00  1.274274e-09 -5.367860e-11 0.000000e+00  1.333113e-09 -4.357620e-11 0.000000e+00  1.380366e-09 -3.295927e-11 0.000000e+00  1.415608e-09 -2.201841e-11 0.000000e+00  1.438275e-09 -1.092941e-11 0.000000e+00  1.448141e-09 1.286821e-13 0.000000e+00  1.445550e-09 1.098740e-11 0.000000e+00  1.430844e-09 2.150510e-11 0.000000e+00  1.404164e-09 3.154726e-11 0.000000e+00  1.366038e-09 4.097723e-11 0.000000e+00  1.317476e-09 4.968451e-11 0.000000e+00  1.259333e-09 5.758979e-11 0.000000e+00  1.192253e-09 6.461179e-11 0.000000e+00  1.117290e-09 7.066791e-11 0.000000e+00  1.035839e-09 7.571185e-11 0.000000e+00  9.489796e-10 7.972768e-11 0.000000e+00  8.576151e-10 8.268982e-11 0.000000e+00  7.630711e-10 8.457271e-11 0.000000e+00  6.668303e-10 8.539026e-11 0.000000e+00  5.699298e-10 8.518130e-11 0.000000e+00  4.732924e-10 8.397060e-11 0.000000e+00  3.782579e-10 8.178492e-11 0.000000e+00  2.861391e-10 7.868672e-11 0.000000e+00  1.977142e-10 7.475432e-11 0.000000e+00  1.137229e-10 7.005155e-11 0.000000e+00  3.529498e-11 6.464673e-11 0.000000e+00  -3.662105e-11 5.863424e-11 0.000000e+00  -1.016432e-10 5.211315e-11 0.000000e+00  -1.593601e-10 4.517129e-11 0.000000e+00  -2.090191e-10 3.790363e-11 0.000000e+00  -2.501482e-10 3.041761e-11 0.000000e+00  -2.828124e-10 2.281388e-11 0.000000e+00  -3.070027e-10 1.518758e-11 0.000000e+00  -3.224383e-10 7.643369e-12 0.000000e+00  -3.291490e-10 2.832838e-13 0.000000e+00  -3.276148e-10 -6.807700e-12 0.000000e+00  -3.182285e-10 -1.354325e-11 0.000000e+00  -3.011966e-10 -1.982609e-11 0.000000e+00  -2.769965e-10 -2.557554e-11 0.000000e+00  -2.464209e-10 -3.073555e-11 0.000000e+00  -2.101952e-10 -3.524256e-11 0.000000e+00  -1.689530e-10 -3.902187e-11 0.000000e+00  -1.234993e-10 -4.202587e-11 0.000000e+00  -7.478834e-11 -4.423565e-11 0.000000e+00  -2.375324e-11 -4.562061e-11 0.000000e+00  2.867029e-11 -4.614026e-11 0.000000e+00  8.151360e-11 -4.578656e-11 0.000000e+00  1.338362e-10 -4.458020e-11 0.000000e+00  1.846593e-10 -4.252897e-11 0.000000e+00  2.329160e-10 -3.963333e-11 0.000000e+00  2.776571e-10 -3.592552e-11 0.000000e+00  3.181288e-10 -3.146249e-11 0.000000e+00  3.534828e-10 -2.629049e-11 0.000000e+00  3.827144e-10 -2.045189e-11 0.000000e+00  4.050684e-10 -1.401400e-11 0.000000e+00  4.201246e-10 -7.061555e-12 0.000000e+00  4.273309e-10 3.261922e-13 0.000000e+00  4.259310e-10 8.070380e-12 0.000000e+00  4.155064e-10 1.607898e-11 0.000000e+00  3.960684e-10 2.425216e-11 0.000000e+00  3.674914e-10 3.248854e-11 0.000000e+00  3.294199e-10 4.068398e-11 0.000000e+00  2.818586e-10 4.873643e-11 0.000000e+00  2.252852e-10 5.654653e-11 0.000000e+00  1.600724e-10 6.400578e-11 0.000000e+00  8.635652e-11 7.100124e-11 0.000000e+00  4.581401e-12 7.743817e-11 0.000000e+00  -8.434818e-11 8.323436e-11 0.000000e+00  -1.795636e-10 8.829212e-11 0.000000e+00  -2.804279e-10 9.250953e-11 0.000000e+00  -3.861225e-10 9.581715e-11 0.000000e+00  -4.954282e-10 9.816588e-11 0.000000e+00  -6.070679e-10 9.948752e-11 0.000000e+00  -7.199886e-10 9.971199e-11 0.000000e+00  -8.331401e-10 9.881159e-11 0.000000e+00  -9.451681e-10 9.678337e-11 0.000000e+00  -1.054558e-09 9.360569e-11 0.000000e+00  -1.160018e-09 8.925912e-11 0.000000e+00  -1.260478e-09 8.377005e-11 0.000000e+00  -1.354675e-09 7.719000e-11 0.000000e+00  -1.441100e-09 6.955646e-11 0.000000e+00  -1.518482e-09 6.091427e-11 0.000000e+00  -1.585978e-09 5.134980e-11 0.000000e+00  -1.642676e-09 4.097091e-11 0.000000e+00  -1.687359e-09 2.987982e-11 0.000000e+00  -1.719079e-09 1.819070e-11 0.000000e+00  -1.737490e-09 6.047555e-12 0.000000e+00  -1.742275e-09 -6.391199e-12 0.000000e+00  -1.732808e-09 -1.896236e-11 0.000000e+00  -1.708772e-09 -3.148846e-11 0.000000e+00  -1.670554e-09 -4.377991e-11 0.000000e+00  -1.618642e-09 -5.564173e-11 0.000000e+00  -1.553261e-09 -6.686458e-11 0.000000e+00  -1.474985e-09 -7.722715e-11 0.000000e+00  -1.385095e-09 -8.651711e-11 0.000000e+00  -1.285014e-09 -9.452637e-11 0.000000e+00  -1.175991e-09 -1.010283e-10 0.000000e+00  -1.059634e-09 -1.057949e-10 0.000000e+00  -9.381595e-10 -1.086302e-10 0.000000e+00  -8.139274e-10 -1.093550e-10 0.000000e+00  -6.892253e-10 -1.077837e-10 0.000000e+00  -5.666244e-10 -1.037600e-10 0.000000e+00  -4.490989e-10 -9.719928e-11 0.000000e+00  -3.397035e-10 -8.809099e-11 0.000000e+00  -2.414049e-10 -7.648076e-11 0.000000e+00  -1.572117e-10 -6.252152e-11 0.000000e+00  -9.026503e-11 -4.682927e-11 0.000000e+00  -4.320862e-11 -3.043211e-11 0.000000e+00  -1.795807e-11 -1.802323e-11 0.000000e+00  -1.335288e-11 -1.796228e-11 0.000000e+00  -4.699510e-12 1.965686e-12 0.000000e+00  5.563792e-08 -5.544650e-08 0.000000e+00  5.352910e-08 2.376471e-08 0.000000e+00  -1.518896e-07 1.526152e-07 0.000000e+00  -6.081198e-07 2.895273e-07 0.000000e+00  -1.314173e-06 4.172903e-07 0.000000e+00  -2.246776e-06 5.281804e-07 0.000000e+00  -3.371762e-06 6.189865e-07 0.000000e+00  -4.650480e-06 6.886921e-07 0.000000e+00  -6.043018e-06 7.374242e-07 0.000000e+00  -7.510024e-06 7.659563e-07 0.000000e+00  -9.013789e-06 7.754495e-07 0.000000e+00  -1.051894e-05 7.673014e-07 0.000000e+00  -1.199663e-05 7.433738e-07 0.000000e+00  -1.340584e-05 7.044378e-07 0.000000e+00  -1.472670e-05 6.528162e-07 0.000000e+00  -1.594712e-05 5.907799e-07 0.000000e+00  -1.703855e-05 5.195212e-07 0.000000e+00  -1.797189e-05 4.403174e-07 0.000000e+00  -1.874511e-05 3.553838e-07 0.000000e+00  -1.936302e-05 2.667782e-07 0.000000e+00  -1.980626e-05 1.756499e-07 0.000000e+00  -2.005545e-05 8.318759e-08 0.000000e+00  -2.012449e-05 -8.788734e-09 0.000000e+00  -2.003252e-05 -9.866990e-08 0.000000e+00  -1.976829e-05 -1.855369e-07 0.000000e+00  -1.932081e-05 -2.684660e-07 0.000000e+00  -1.871616e-05 -3.461925e-07 0.000000e+00  -1.798380e-05 -4.176850e-07 0.000000e+00  -1.711834e-05 -4.823639e-07 0.000000e+00  -1.611471e-05 -5.396635e-07 0.000000e+00  -1.500656e-05 -5.889388e-07 0.000000e+00  -1.382895e-05 -6.297751e-07 0.000000e+00  -1.257955e-05 -6.619651e-07 0.000000e+00  -1.125634e-05 -6.853187e-07 0.000000e+00  -9.895660e-06 -6.997917e-07 0.000000e+00  -8.533520e-06 -7.055482e-07 0.000000e+00  -7.167820e-06 -7.027194e-07 0.000000e+00  -5.796770e-06 -6.914435e-07 0.000000e+00  -4.455050e-06 -6.721934e-07 0.000000e+00  -3.175395e-06 -6.456138e-07 0.000000e+00  -1.953628e-06 -6.120890e-07 0.000000e+00  -7.859662e-07 -5.719912e-07 0.000000e+00  2.981676e-07 -5.261806e-07 0.000000e+00  1.272535e-06 -4.756443e-07 0.000000e+00  2.144923e-06 -4.209022e-07 0.000000e+00  2.922481e-06 -3.624380e-07 0.000000e+00  3.583496e-06 -3.013451e-07 0.000000e+00  4.110294e-06 -2.387949e-07 0.000000e+00  4.514817e-06 -1.753120e-07 0.000000e+00  4.807953e-06 -1.113612e-07 0.000000e+00  4.976916e-06 -4.810916e-08 0.000000e+00  5.013414e-06 1.324652e-08 0.000000e+00  4.933073e-06 7.230218e-08 0.000000e+00  4.749895e-06 1.287343e-07 0.000000e+00  4.460026e-06 1.814500e-07 0.000000e+00  4.064187e-06 2.293676e-07 0.000000e+00  3.580301e-06 2.723102e-07 0.000000e+00  3.023992e-06 3.101940e-07 0.000000e+00  2.399277e-06 3.421211e-07 0.000000e+00  1.714519e-06 3.672385e-07 0.000000e+00  9.878456e-07 3.856695e-07 0.000000e+00  2.343579e-07 3.976342e-07 0.000000e+00  -5.359175e-07 4.025140e-07 0.000000e+00  -1.309089e-06 3.997585e-07 0.000000e+00  -2.069341e-06 3.898247e-07 0.000000e+00  -2.804572e-06 3.732583e-07 0.000000e+00  -3.501110e-06 3.497611e-07 0.000000e+00  -4.142055e-06 3.191149e-07 0.000000e+00  -4.716502e-06 2.820983e-07 0.000000e+00  -5.217821e-06 2.395591e-07 0.000000e+00  -5.631199e-06 1.915142e-07 0.000000e+00  -5.939303e-06 1.380616e-07 0.000000e+00  -6.138455e-06 8.024336e-08 0.000000e+00  -6.229609e-06 1.914033e-08 0.000000e+00  -6.199099e-06 -4.496544e-08 0.000000e+00  -6.031425e-06 -1.117199e-07 0.000000e+00  -5.731837e-06 -1.799175e-07 0.000000e+00  -5.310270e-06 -2.483550e-07 0.000000e+00  -4.755945e-06 -3.165741e-07 0.000000e+00  -4.056845e-06 -3.840619e-07 0.000000e+00  -3.227912e-06 -4.495847e-07 0.000000e+00  -2.288464e-06 -5.119592e-07 0.000000e+00  -1.231534e-06 -5.706696e-07 0.000000e+00  -4.936081e-08 -6.251678e-07 0.000000e+00  1.233819e-06 -6.743500e-07 0.000000e+00  2.590095e-06 -7.172144e-07 0.000000e+00  4.022702e-06 -7.533218e-07 0.000000e+00  5.535395e-06 -7.822246e-07 0.000000e+00  7.096313e-06 -8.031132e-07 0.000000e+00  8.671032e-06 -8.153309e-07 0.000000e+00  1.026018e-05 -8.186476e-07 0.000000e+00  1.186480e-05 -8.128447e-07 0.000000e+00  1.344833e-05 -7.975589e-07 0.000000e+00  1.497314e-05 -7.726241e-07 0.000000e+00  1.643931e-05 -7.381296e-07 0.000000e+00  1.784741e-05 -6.941877e-07 0.000000e+00  1.916016e-05 -6.409998e-07 0.000000e+00  2.034099e-05 -5.789955e-07 0.000000e+00  2.139225e-05 -5.086523e-07 0.000000e+00  2.231685e-05 -4.304692e-07 0.000000e+00  2.308150e-05 -3.452750e-07 0.000000e+00  2.365558e-05 -2.541418e-07 0.000000e+00  2.404680e-05 -1.579435e-07 0.000000e+00  2.426344e-05 -5.755866e-08 0.000000e+00  2.428115e-05 4.556380e-08 0.000000e+00  2.408015e-05 1.497394e-07 0.000000e+00  2.367640e-05 2.537603e-07 0.000000e+00  2.308624e-05 3.564468e-07 0.000000e+00  2.229879e-05 4.558192e-07 0.000000e+00  2.130949e-05 5.496956e-07 0.000000e+00  2.014455e-05 6.366706e-07 0.000000e+00  1.883021e-05 7.154114e-07 0.000000e+00  1.737250e-05 7.835834e-07 0.000000e+00  1.578509e-05 8.387157e-07 0.000000e+00  1.410513e-05 8.794168e-07 0.000000e+00  1.236901e-05 9.044183e-07 0.000000e+00  1.060127e-05 9.113249e-07 0.000000e+00  8.834475e-06 8.977562e-07 0.000000e+00  7.114966e-06 8.627215e-07 0.000000e+00  5.486970e-06 8.054847e-07 0.000000e+00  3.990897e-06 7.244410e-07 0.000000e+00  2.672591e-06 6.187477e-07 0.000000e+00  1.577825e-06 4.899946e-07 0.000000e+00  7.439072e-07 3.419536e-07 0.000000e+00  1.994435e-07 1.826207e-07 0.000000e+00  -5.067968e-08 3.236128e-08 0.000000e+00  -6.049139e-08 -6.063050e-08 0.000000e+00  -1.370095e-11 -1.215461e-11 0.000000e+00  6.644163e-13 -2.657979e-12 0.000000e+00  -2.222923e-08 -5.425609e-08 0.000000e+00  -2.473870e-07 2.500099e-07 0.000000e+00  -8.289775e-07 6.994463e-07 0.000000e+00  -1.824708e-06 1.180974e-06 0.000000e+00  -3.236479e-06 1.636454e-06 0.000000e+00  -5.031192e-06 2.036702e-06 0.000000e+00  -7.155997e-06 2.367783e-06 0.000000e+00  -9.547855e-06 2.624000e-06 0.000000e+00  -1.213935e-05 2.804354e-06 0.000000e+00  -1.486238e-05 2.910651e-06 0.000000e+00  -1.765056e-05 2.946455e-06 0.000000e+00  -2.044074e-05 2.916470e-06 0.000000e+00  -2.318174e-05 2.827271e-06 0.000000e+00  -2.579678e-05 2.681459e-06 0.000000e+00  -2.825086e-05 2.487630e-06 0.000000e+00  -3.052304e-05 2.254221e-06 0.000000e+00  -3.255930e-05 1.985592e-06 0.000000e+00  -3.430414e-05 1.686505e-06 0.000000e+00  -3.575481e-05 1.365352e-06 0.000000e+00  -3.692123e-05 1.029907e-06 0.000000e+00  -3.776572e-05 6.844699e-07 0.000000e+00  -3.825037e-05 3.335553e-07 0.000000e+00  -3.840185e-05 -1.587021e-08 0.000000e+00  -3.825672e-05 -3.576887e-07 0.000000e+00  -3.779209e-05 -6.884321e-07 0.000000e+00  -3.698550e-05 -1.004550e-06 0.000000e+00  -3.588641e-05 -1.301166e-06 0.000000e+00  -3.455070e-05 -1.574345e-06 0.000000e+00  -3.296636e-05 -1.821886e-06 0.000000e+00  -3.112198e-05 -2.041584e-06 0.000000e+00  -2.908128e-05 -2.230920e-06 0.000000e+00  -2.691079e-05 -2.388309e-06 0.000000e+00  -2.460425e-05 -2.512954e-06 0.000000e+00  -2.215603e-05 -2.604074e-06 0.000000e+00  -1.963514e-05 -2.661452e-06 0.000000e+00  -1.710993e-05 -2.685715e-06 0.000000e+00  -1.457476e-05 -2.677349e-06 0.000000e+00  -1.202465e-05 -2.636824e-06 0.000000e+00  -9.525624e-06 -2.565912e-06 0.000000e+00  -7.139989e-06 -2.467083e-06 0.000000e+00  -4.858434e-06 -2.341784e-06 0.000000e+00  -2.672529e-06 -2.191379e-06 0.000000e+00  -6.385164e-07 -2.019139e-06 0.000000e+00  1.193418e-06 -1.828850e-06 0.000000e+00  2.839092e-06 -1.622471e-06 0.000000e+00  4.312941e-06 -1.401798e-06 0.000000e+00  5.573147e-06 -1.171009e-06 0.000000e+00  6.585600e-06 -9.346020e-07 0.000000e+00  7.373619e-06 -6.945505e-07 0.000000e+00  7.958329e-06 -4.525821e-07 0.000000e+00  8.314689e-06 -2.131705e-07 0.000000e+00  8.426258e-06 1.907939e-08 0.000000e+00  8.322965e-06 2.426631e-07 0.000000e+00  8.031454e-06 4.563871e-07 0.000000e+00  7.543529e-06 6.560471e-07 0.000000e+00  6.859788e-06 8.374784e-07 0.000000e+00  6.014168e-06 1.000049e-06 0.000000e+00  5.036034e-06 1.143477e-06 0.000000e+00  3.932110e-06 1.264292e-06 0.000000e+00  2.717503e-06 1.359205e-06 0.000000e+00  1.426239e-06 1.428737e-06 0.000000e+00  8.640294e-08 1.473761e-06 0.000000e+00  -1.283813e-06 1.491870e-06 0.000000e+00  -2.658716e-06 1.480930e-06 0.000000e+00  -4.008896e-06 1.442743e-06 0.000000e+00  -5.312172e-06 1.379424e-06 0.000000e+00  -6.543278e-06 1.289779e-06 0.000000e+00  -7.670633e-06 1.172953e-06 0.000000e+00  -8.674290e-06 1.031976e-06 0.000000e+00  -9.542577e-06 8.701110e-07 0.000000e+00  -1.024782e-05 6.873648e-07 0.000000e+00  -1.075735e-05 4.840930e-07 0.000000e+00  -1.106500e-05 2.643330e-07 0.000000e+00  -1.117351e-05 3.222718e-08 0.000000e+00  -1.105707e-05 -2.112065e-07 0.000000e+00  -1.068616e-05 -4.646315e-07 0.000000e+00  -1.007153e-05 -7.233907e-07 0.000000e+00  -9.232880e-06 -9.828855e-07 0.000000e+00  -8.149507e-06 -1.241428e-06 0.000000e+00  -6.798134e-06 -1.497073e-06 0.000000e+00  -5.207777e-06 -1.745064e-06 0.000000e+00  -3.415815e-06 -1.980893e-06 0.000000e+00  -1.408348e-06 -2.202654e-06 0.000000e+00  8.302161e-07 -2.408268e-06 0.000000e+00  3.253393e-06 -2.593485e-06 0.000000e+00  5.807710e-06 -2.754506e-06 0.000000e+00  8.500390e-06 -2.889720e-06 0.000000e+00  1.133981e-05 -2.997428e-06 0.000000e+00  1.426521e-05 -3.074521e-06 0.000000e+00  1.721100e-05 -3.118531e-06 0.000000e+00  2.017982e-05 -3.128645e-06 0.000000e+00  2.317522e-05 -3.104035e-06 0.000000e+00  2.612774e-05 -3.043313e-06 0.000000e+00  2.896586e-05 -2.945893e-06 0.000000e+00  3.169152e-05 -2.812177e-06 0.000000e+00  3.430755e-05 -2.642599e-06 0.000000e+00  3.674325e-05 -2.437934e-06 0.000000e+00  3.892931e-05 -2.199880e-06 0.000000e+00  4.087205e-05 -1.930307e-06 0.000000e+00  4.257882e-05 -1.631116e-06 0.000000e+00  4.398655e-05 -1.305484e-06 0.000000e+00  4.503719e-05 -9.575582e-07 0.000000e+00  4.574716e-05 -5.906962e-07 0.000000e+00  4.613385e-05 -2.082329e-07 0.000000e+00  4.615099e-05 1.842916e-07 0.000000e+00  4.576095e-05 5.804177e-07 0.000000e+00  4.499542e-05 9.755528e-07 0.000000e+00  4.388668e-05 1.365242e-06 0.000000e+00  4.241359e-05 1.741949e-06 0.000000e+00  4.056687e-05 2.097375e-06 0.000000e+00  3.839698e-05 2.426250e-06 0.000000e+00  3.595413e-05 2.723600e-06 0.000000e+00  3.324838e-05 2.980625e-06 0.000000e+00  3.030392e-05 3.188072e-06 0.000000e+00  2.719058e-05 3.340900e-06 0.000000e+00  2.397630e-05 3.434565e-06 0.000000e+00  2.070426e-05 3.460317e-06 0.000000e+00  1.743193e-05 3.409680e-06 0.000000e+00  1.424365e-05 3.279654e-06 0.000000e+00  1.121862e-05 3.068378e-06 0.000000e+00  8.425191e-06 2.771077e-06 0.000000e+00  5.939646e-06 2.386426e-06 0.000000e+00  3.838100e-06 1.922671e-06 0.000000e+00  2.178727e-06 1.396117e-06 0.000000e+00  1.000791e-06 8.369423e-07 0.000000e+00  3.084357e-07 3.112008e-07 0.000000e+00  3.184626e-08 -5.046319e-08 0.000000e+00  -1.350140e-11 -1.609733e-11 0.000000e+00  4.190540e-12 -3.976813e-12 0.000000e+00  -1.496874e-07 1.480950e-07 0.000000e+00  -6.949327e-07 8.313410e-07 0.000000e+00  -1.742706e-06 1.745909e-06 0.000000e+00  -3.333321e-06 2.714225e-06 0.000000e+00  -5.459698e-06 3.634006e-06 0.000000e+00  -8.078941e-06 4.448062e-06 0.000000e+00  -1.112511e-05 5.125979e-06 0.000000e+00  -1.451846e-05 5.653454e-06 0.000000e+00  -1.817219e-05 6.026124e-06 0.000000e+00  -2.199720e-05 6.245932e-06 0.000000e+00  -2.590551e-05 6.318955e-06 0.000000e+00  -2.981251e-05 6.254045e-06 0.000000e+00  -3.365025e-05 6.064351e-06 0.000000e+00  -3.731085e-05 5.754677e-06 0.000000e+00  -4.074838e-05 5.342896e-06 0.000000e+00  -4.393624e-05 4.846709e-06 0.000000e+00  -4.679769e-05 4.275092e-06 0.000000e+00  -4.925352e-05 3.637949e-06 0.000000e+00  -5.130159e-05 2.953138e-06 0.000000e+00  -5.295751e-05 2.237239e-06 0.000000e+00  -5.416639e-05 1.499319e-06 0.000000e+00  -5.487276e-05 7.489578e-07 0.000000e+00  -5.511533e-05 1.110869e-09 0.000000e+00  -5.494675e-05 -7.310783e-07 0.000000e+00  -5.433241e-05 -1.440217e-06 0.000000e+00  -5.323813e-05 -2.118699e-06 0.000000e+00  -5.173456e-05 -2.755993e-06 0.000000e+00  -4.990148e-05 -3.343603e-06 0.000000e+00  -4.771938e-05 -3.876797e-06 0.000000e+00  -4.516954e-05 -4.350801e-06 0.000000e+00  -4.234278e-05 -4.760133e-06 0.000000e+00  -3.933392e-05 -5.101343e-06 0.000000e+00  -3.613158e-05 -5.372679e-06 0.000000e+00  -3.272531e-05 -5.572391e-06 0.000000e+00  -2.921352e-05 -5.699957e-06 0.000000e+00  -2.569373e-05 -5.756698e-06 0.000000e+00  -2.215561e-05 -5.743595e-06 0.000000e+00  -1.858989e-05 -5.661570e-06 0.000000e+00  -1.509095e-05 -5.514401e-06 0.000000e+00  -1.174788e-05 -5.307396e-06 0.000000e+00  -8.545493e-06 -5.043589e-06 0.000000e+00  -5.470006e-06 -4.725817e-06 0.000000e+00  -2.602146e-06 -4.361107e-06 0.000000e+00  -1.398280e-08 -3.957629e-06 0.000000e+00  2.318494e-06 -3.519508e-06 0.000000e+00  4.417091e-06 -3.050503e-06 0.000000e+00  6.221369e-06 -2.559626e-06 0.000000e+00  7.681929e-06 -2.056602e-06 0.000000e+00  8.832945e-06 -1.545582e-06 0.000000e+00  9.705203e-06 -1.030174e-06 0.000000e+00  1.026194e-05 -5.200550e-07 0.000000e+00  1.047877e-05 -2.519758e-08 0.000000e+00  1.039874e-05 4.512596e-07 0.000000e+00  1.005996e-05 9.068583e-07 0.000000e+00  9.449540e-06 1.332482e-06 0.000000e+00  8.567265e-06 1.719090e-06 0.000000e+00  7.461421e-06 2.065425e-06 0.000000e+00  6.173491e-06 2.370991e-06 0.000000e+00  4.711818e-06 2.628238e-06 0.000000e+00  3.096877e-06 2.829997e-06 0.000000e+00  1.376658e-06 2.977496e-06 0.000000e+00  -4.095830e-07 3.072727e-06 0.000000e+00  -2.237070e-06 3.110410e-06 0.000000e+00  -4.070111e-06 3.085866e-06 0.000000e+00  -5.867615e-06 3.003077e-06 0.000000e+00  -7.599035e-06 2.866696e-06 0.000000e+00  -9.229294e-06 2.674061e-06 0.000000e+00  -1.071406e-05 2.423233e-06 0.000000e+00  -1.202593e-05 2.120837e-06 0.000000e+00  -1.314951e-05 1.773986e-06 0.000000e+00  -1.404593e-05 1.382597e-06 0.000000e+00  -1.466896e-05 9.473379e-07 0.000000e+00  -1.501092e-05 4.769901e-07 0.000000e+00  -1.507696e-05 -1.945356e-08 0.000000e+00  -1.483045e-05 -5.399077e-07 0.000000e+00  -1.422917e-05 -1.081590e-06 0.000000e+00  -1.328948e-05 -1.634404e-06 0.000000e+00  -1.204067e-05 -2.188396e-06 0.000000e+00  -1.045281e-05 -2.740042e-06 0.000000e+00  -8.492072e-06 -3.285250e-06 0.000000e+00  -6.200698e-06 -3.813731e-06 0.000000e+00  -3.632935e-06 -4.315754e-06 0.000000e+00  -7.680103e-07 -4.787331e-06 0.000000e+00  2.417516e-06 -5.224073e-06 0.000000e+00  5.856731e-06 -5.616815e-06 0.000000e+00  9.472730e-06 -5.957380e-06 0.000000e+00  1.327733e-05 -6.242411e-06 0.000000e+00  1.728422e-05 -6.468336e-06 0.000000e+00  2.140641e-05 -6.628469e-06 0.000000e+00  2.555001e-05 -6.717530e-06 0.000000e+00  2.972081e-05 -6.733869e-06 0.000000e+00  3.392604e-05 -6.675783e-06 0.000000e+00  3.806655e-05 -6.540306e-06 0.000000e+00  4.204029e-05 -6.326242e-06 0.000000e+00  4.585237e-05 -6.034533e-06 0.000000e+00  4.950928e-05 -5.666166e-06 0.000000e+00  5.291028e-05 -5.222857e-06 0.00000