<?xml version="1.0"?>
<VTKFile type="UnstructuredGrid"  version="0.1"  >
<UnstructuredGrid>
<Piece  NumberOfPoints="16641" NumberOfCells="32768">
<Points>
<DataArray  type="Float32"  NumberOfComponents="3"  format="ascii">0 0 0  0.0078125 0 0  0.015625 0 0  0.0234375 0 0  0.03125 0 0  0.0390625 0 0  0.046875 0 0  0.0546875 0 0  0.0625 0 0  0.0703125 0 0  0.078125 0 0  0.0859375 0 0  0.09375 0 0  0.101562 0 0  0.109375 0 0  0.117188 0 0  0.125 0 0  0.132812 0 0  0.140625 0 0  0.148438 0 0  0.15625 0 0  0.164062 0 0  0.171875 0 0  0.179688 0 0  0.1875 0 0  0.195312 0 0  0.203125 0 0  0.210938 0 0  0.21875 0 0  0.226562 0 0  0.234375 0 0  0.242188 0 0  0.25 0 0  0.257812 0 0  0.265625 0 0  0.273438 0 0  0.28125 0 0  0.289062 0 0  0.296875 0 0  0.304688 0 0  0.3125 0 0  0.320312 0 0  0.328125 0 0  0.335938 0 0  0.34375 0 0  0.351562 0 0  0.359375 0 0  0.367188 0 0  0.375 0 0  0.382812 0 0  0.390625 0 0  0.398438 0 0  0.40625 0 0  0.414062 0 0  0.421875 0 0  0.429688 0 0  0.4375 0 0  0.445312 0 0  0.453125 0 0  0.460938 0 0  0.46875 0 0  0.476562 0 0  0.484375 0 0  0.492188 0 0  0.5 0 0  0.507812 0 0  0.515625 0 0  0.523438 0 0  0.53125 0 0  0.539062 0 0  0.546875 0 0  0.554688 0 0  0.5625 0 0  0.570312 0 0  0.578125 0 0  0.585938 0 0  0.59375 0 0  0.601562 0 0  0.609375 0 0  0.617188 0 0  0.625 0 0  0.632812 0 0  0.640625 0 0  0.648438 0 0  0.65625 0 0  0.664062 0 0  0.671875 0 0  0.679688 0 0  0.6875 0 0  0.695312 0 0  0.703125 0 0  0.710938 0 0  0.71875 0 0  0.726562 0 0  0.734375 0 0  0.742188 0 0  0.75 0 0  0.757812 0 0  0.765625 0 0  0.773438 0 0  0.78125 0 0  0.789062 0 0  0.796875 0 0  0.804688 0 0  0.8125 0 0  0.820312 0 0  0.828125 0 0  0.835938 0 0  0.84375 0 0  0.851562 0 0  0.859375 0 0  0.867188 0 0  0.875 0 0  0.882812 0 0  0.890625 0 0  0.898438 0 0  0.90625 0 0  0.914062 0 0  0.921875 0 0  0.929688 0 0  0.9375 0 0  0.945312 0 0  0.953125 0 0  0.960938 0 0  0.96875 0 0  0.976562 0 0  0.984375 0 0  0.992188 0 0  1 0 0  0 0.0078125 0  0.0078125 0.0078125 0  0.015625 0.0078125 0  0.0234375 0.0078125 0  0.03125 0.0078125 0  0.0390625 0.0078125 0  0.046875 0.0078125 0  0.0546875 0.0078125 0  0.0625 0.0078125 0  0.0703125 0.0078125 0  0.078125 0.0078125 0  0.0859375 0.0078125 0  0.09375 0.0078125 0  0.101562 0.0078125 0  0.109375 0.0078125 0  0.117188 0.0078125 0  0.125 0.0078125 0  0.132812 0.0078125 0  0.140625 0.0078125 0  0.148438 0.0078125 0  0.15625 0.0078125 0  0.164062 0.0078125 0  0.171875 0.0078125 0  0.179688 0.0078125 0  0.1875 0.0078125 0  0.195312 0.0078125 0  0.203125 0.0078125 0  0.210938 0.0078125 0  0.21875 0.0078125 0  0.226562 0.0078125 0  0.234375 0.0078125 0  0.242188 0.0078125 0  0.25 0.0078125 0  0.257812 0.0078125 0  0.265625 0.0078125 0  0.273438 0.0078125 0  0.28125 0.0078125 0  0.289062 0.0078125 0  0.296875 0.0078125 0  0.304688 0.0078125 0  0.3125 0.0078125 0  0.320312 0.0078125 0  0.328125 0.0078125 0  0.335938 0.0078125 0  0.34375 0.0078125 0  0.351562 0.0078125 0  0.359375 0.0078125 0  0.367188 0.0078125 0  0.375 0.0078125 0  0.382812 0.0078125 0  0.390625 0.0078125 0  0.398438 0.0078125 0  0.40625 0.0078125 0  0.414062 0.0078125 0  0.421875 0.0078125 0  0.429688 0.0078125 0  0.4375 0.0078125 0  0.445312 0.0078125 0  0.453125 0.0078125 0  0.460938 0.0078125 0  0.46875 0.0078125 0  0.476562 0.0078125 0  0.484375 0.0078125 0  0.492188 0.0078125 0  0.5 0.0078125 0  0.507812 0.0078125 0  0.515625 0.0078125 0  0.523438 0.0078125 0  0.53125 0.0078125 0  0.539062 0.0078125 0  0.546875 0.0078125 0  0.554688 0.0078125 0  0.5625 0.0078125 0  0.570312 0.0078125 0  0.578125 0.0078125 0  0.585938 0.0078125 0  0.59375 0.0078125 0  0.601562 0.0078125 0  0.609375 0.0078125 0  0.617188 0.0078125 0  0.625 0.0078125 0  0.632812 0.0078125 0  0.640625 0.0078125 0  0.648438 0.0078125 0  0.65625 0.0078125 0  0.664062 0.0078125 0  0.671875 0.0078125 0  0.679688 0.0078125 0  0.6875 0.0078125 0  0.695312 0.0078125 0  0.703125 0.0078125 0  0.710938 0.0078125 0  0.71875 0.0078125 0  0.726562 0.0078125 0  0.734375 0.0078125 0  0.742188 0.0078125 0  0.75 0.0078125 0  0.757812 0.0078125 0  0.765625 0.0078125 0  0.773438 0.0078125 0  0.78125 0.0078125 0  0.789062 0.0078125 0  0.796875 0.0078125 0  0.804688 0.0078125 0  0.8125 0.0078125 0  0.820312 0.0078125 0  0.828125 0.0078125 0  0.835938 0.0078125 0  0.84375 0.0078125 0  0.851562 0.0078125 0  0.859375 0.0078125 0  0.867188 0.0078125 0  0.875 0.0078125 0  0.882812 0.0078125 0  0.890625 0.0078125 0  0.898438 0.0078125 0  0.90625 0.0078125 0  0.914062 0.0078125 0  0.921875 0.0078125 0  0.929688 0.0078125 0  0.9375 0.0078125 0  0.945312 0.0078125 0  0.953125 0.0078125 0  0.960938 0.0078125 0  0.96875 0.0078125 0  0.976562 0.0078125 0  0.984375 0.0078125 0  0.992188 0.0078125 0  1 0.0078125 0  0 0.015625 0  0.0078125 0.015625 0  0.015625 0.015625 0  0.0234375 0.015625 0  0.03125 0.015625 0  0.0390625 0.015625 0  0.046875 0.015625 0  0.0546875 0.015625 0  0.0625 0.015625 0  0.0703125 0.015625 0  0.078125 0.015625 0  0.0859375 0.015625 0  0.09375 0.015625 0  0.101562 0.015625 0  0.109375 0.015625 0  0.117188 0.015625 0  0.125 0.015625 0  0.132812 0.015625 0  0.140625 0.015625 0  0.148438 0.015625 0  0.15625 0.015625 0  0.164062 0.015625 0  0.171875 0.015625 0  0.179688 0.015625 0  0.1875 0.015625 0  0.195312 0.015625 0  0.203125 0.015625 0  0.210938 0.015625 0  0.21875 0.015625 0  0.226562 0.015625 0  0.234375 0.015625 0  0.242188 0.015625 0  0.25 0.015625 0  0.257812 0.015625 0  0.265625 0.015625 0  0.273438 0.015625 0  0.28125 0.015625 0  0.289062 0.015625 0  0.296875 0.015625 0  0.304688 0.015625 0  0.3125 0.015625 0  0.320312 0.015625 0  0.328125 0.015625 0  0.335938 0.015625 0  0.34375 0.015625 0  0.351562 0.015625 0  0.359375 0.015625 0  0.367188 0.015625 0  0.375 0.015625 0  0.382812 0.015625 0  0.390625 0.015625 0  0.398438 0.015625 0  0.40625 0.015625 0  0.414062 0.015625 0  0.421875 0.015625 0  0.429688 0.015625 0  0.4375 0.015625 0  0.445312 0.015625 0  0.453125 0.015625 0  0.460938 0.015625 0  0.46875 0.015625 0  0.476562 0.015625 0  0.484375 0.015625 0  0.492188 0.015625 0  0.5 0.015625 0  0.507812 0.015625 0  0.515625 0.015625 0  0.523438 0.015625 0  0.53125 0.015625 0  0.539062 0.015625 0  0.546875 0.015625 0  0.554688 0.015625 0  0.5625 0.015625 0  0.570312 0.015625 0  0.578125 0.015625 0  0.585938 0.015625 0  0.59375 0.015625 0  0.601562 0.015625 0  0.609375 0.015625 0  0.617188 0.015625 0  0.625 0.015625 0  0.632812 0.015625 0  0.640625 0.015625 0  0.648438 0.015625 0  0.65625 0.015625 0  0.664062 0.015625 0  0.671875 0.015625 0  0.679688 0.015625 0  0.6875 0.015625 0  0.695312 0.015625 0  0.703125 0.015625 0  0.710938 0.015625 0  0.71875 0.015625 0  0.726562 0.015625 0  0.734375 0.015625 0  0.742188 0.015625 0  0.75 0.015625 0  0.757812 0.015625 0  0.765625 0.015625 0  0.773438 0.015625 0  0.78125 0.015625 0  0.789062 0.015625 0  0.796875 0.015625 0  0.804688 0.015625 0  0.8125 0.015625 0  0.820312 0.015625 0  0.828125 0.015625 0  0.835938 0.015625 0  0.84375 0.015625 0  0.851562 0.015625 0  0.859375 0.015625 0  0.867188 0.015625 0  0.875 0.015625 0  0.882812 0.015625 0  0.890625 0.015625 0  0.898438 0.015625 0  0.90625 0.015625 0  0.914062 0.015625 0  0.921875 0.015625 0  0.929688 0.015625 0  0.9375 0.015625 0  0.945312 0.015625 0  0.953125 0.015625 0  0.960938 0.015625 0  0.96875 0.015625 0  0.976562 0.015625 0  0.984375 0.015625 0  0.992188 0.015625 0  1 0.015625 0  0 0.0234375 0  0.0078125 0.0234375 0  0.015625 0.0234375 0  0.0234375 0.0234375 0  0.03125 0.0234375 0  0.0390625 0.0234375 0  0.046875 0.0234375 0  0.0546875 0.0234375 0  0.0625 0.0234375 0  0.0703125 0.0234375 0  0.078125 0.0234375 0  0.0859375 0.0234375 0  0.09375 0.0234375 0  0.101562 0.0234375 0  0.109375 0.0234375 0  0.117188 0.0234375 0  0.125 0.0234375 0  0.132812 0.0234375 0  0.140625 0.0234375 0  0.148438 0.0234375 0  0.15625 0.0234375 0  0.164062 0.0234375 0  0.171875 0.0234375 0  0.179688 0.0234375 0  0.1875 0.0234375 0  0.195312 0.0234375 0  0.203125 0.0234375 0  0.210938 0.0234375 0  0.21875 0.0234375 0  0.226562 0.0234375 0  0.234375 0.0234375 0  0.242188 0.0234375 0  0.25 0.0234375 0  0.257812 0.0234375 0  0.265625 0.0234375 0  0.273438 0.0234375 0  0.28125 0.0234375 0  0.289062 0.0234375 0  0.296875 0.0234375 0  0.304688 0.0234375 0  0.3125 0.0234375 0  0.320312 0.0234375 0  0.328125 0.0234375 0  0.335938 0.0234375 0  0.34375 0.0234375 0  0.351562 0.0234375 0  0.359375 0.0234375 0  0.367188 0.0234375 0  0.375 0.0234375 0  0.382812 0.0234375 0  0.390625 0.0234375 0  0.398438 0.0234375 0  0.40625 0.0234375 0  0.414062 0.0234375 0  0.421875 0.0234375 0  0.429688 0.0234375 0  0.4375 0.0234375 0  0.445312 0.0234375 0  0.453125 0.0234375 0  0.460938 0.0234375 0  0.46875 0.0234375 0  0.476562 0.0234375 0  0.484375 0.0234375 0  0.492188 0.0234375 0  0.5 0.0234375 0  0.507812 0.0234375 0  0.515625 0.0234375 0  0.523438 0.0234375 0  0.53125 0.0234375 0  0.539062 0.0234375 0  0.546875 0.0234375 0  0.554688 0.0234375 0  0.5625 0.0234375 0  0.570312 0.0234375 0  0.578125 0.0234375 0  0.585938 0.0234375 0  0.59375 0.0234375 0  0.601562 0.0234375 0  0.609375 0.0234375 0  0.617188 0.0234375 0  0.625 0.0234375 0  0.632812 0.0234375 0  0.640625 0.0234375 0  0.648438 0.0234375 0  0.65625 0.0234375 0  0.664062 0.0234375 0  0.671875 0.0234375 0  0.679688 0.0234375 0  0.6875 0.0234375 0  0.695312 0.0234375 0  0.703125 0.0234375 0  0.710938 0.0234375 0  0.71875 0.0234375 0  0.726562 0.0234375 0  0.734375 0.0234375 0  0.742188 0.0234375 0  0.75 0.0234375 0  0.757812 0.0234375 0  0.765625 0.0234375 0  0.773438 0.0234375 0  0.78125 0.0234375 0  0.789062 0.0234375 0  0.796875 0.0234375 0  0.804688 0.0234375 0  0.8125 0.0234375 0  0.820312 0.0234375 0  0.828125 0.0234375 0  0.835938 0.0234375 0  0.84375 0.0234375 0  0.851562 0.0234375 0  0.859375 0.0234375 0  0.867188 0.0234375 0  0.875 0.0234375 0  0.882812 0.0234375 0  0.890625 0.0234375 0  0.898438 0.0234375 0  0.90625 0.0234375 0  0.914062 0.0234375 0  0.921875 0.0234375 0  0.929688 0.0234375 0  0.9375 0.0234375 0  0.945312 0.0234
[...]
<PointData  Vectors="u"> 
<DataArray  type="Float32"  Name="u"  NumberOfComponents="3" format="ascii">2.971856e-12 1.168004e-12 0.000000e+00  -1.219103e-12 1.662941e-12 0.000000e+00  2.747648e-12 -6.000723e-12 0.000000e+00  5.320561e-12 -1.365644e-11 0.000000e+00  2.144399e-11 -2.578211e-11 0.000000e+00  5.233508e-11 -3.925751e-11 0.000000e+00  9.952148e-11 -5.253067e-11 0.000000e+00  1.621642e-10 -6.456000e-11 0.000000e+00  2.383822e-10 -7.470992e-11 0.000000e+00  3.257892e-10 -8.267594e-11 0.000000e+00  4.217826e-10 -8.835351e-11 0.000000e+00  5.236934e-10 -9.175382e-11 0.000000e+00  6.290317e-10 -9.296947e-11 0.000000e+00  7.350834e-10 -9.210680e-11 0.000000e+00  8.397411e-10 -8.935103e-11 0.000000e+00  9.408213e-10 -8.487343e-11 0.000000e+00  1.036295e-09 -7.885806e-11 0.000000e+00  1.124599e-09 -7.151678e-11 0.000000e+00  1.204388e-09 -6.305933e-11 0.000000e+00  1.274261e-09 -5.367965e-11 0.000000e+00  1.333102e-09 -4.357753e-11 0.000000e+00  1.380355e-09 -3.296084e-11 0.000000e+00  1.415600e-09 -2.202020e-11 0.000000e+00  1.438268e-09 -1.093137e-11 0.000000e+00  1.448137e-09 1.266092e-13 0.000000e+00  1.445548e-09 1.098527e-11 0.000000e+00  1.430844e-09 2.150296e-11 0.000000e+00  1.404168e-09 3.154518e-11 0.000000e+00  1.366043e-09 4.097526e-11 0.000000e+00  1.317483e-09 4.968271e-11 0.000000e+00  1.259343e-09 5.758822e-11 0.000000e+00  1.192264e-09 6.461048e-11 0.000000e+00  1.117303e-09 7.066692e-11 0.000000e+00  1.035853e-09 7.571120e-11 0.000000e+00  9.489940e-10 7.972740e-11 0.000000e+00  8.576298e-10 8.268993e-11 0.000000e+00  7.630856e-10 8.457321e-11 0.000000e+00  6.668441e-10 8.539116e-11 0.000000e+00  5.699425e-10 8.518259e-11 0.000000e+00  4.733035e-10 8.397227e-11 0.000000e+00  3.782671e-10 8.178695e-11 0.000000e+00  2.861458e-10 7.868908e-11 0.000000e+00  1.977182e-10 7.475699e-11 0.000000e+00  1.137238e-10 7.005451e-11 0.000000e+00  3.529245e-11 6.464994e-11 0.000000e+00  -3.662727e-11 5.863766e-11 0.000000e+00  -1.016533e-10 5.211676e-11 0.000000e+00  -1.593743e-10 4.517506e-11 0.000000e+00  -2.090377e-10 3.790753e-11 0.000000e+00  -2.501711e-10 3.042160e-11 0.000000e+00  -2.828399e-10 2.281794e-11 0.000000e+00  -3.070347e-10 1.519169e-11 0.000000e+00  -3.224749e-10 7.647495e-12 0.000000e+00  -3.291903e-10 2.874003e-13 0.000000e+00  -3.276607e-10 -6.803595e-12 0.000000e+00  -3.182790e-10 -1.353918e-11 0.000000e+00  -3.012516e-10 -1.982208e-11 0.000000e+00  -2.770560e-10 -2.557159e-11 0.000000e+00  -2.464848e-10 -3.073169e-11 0.000000e+00  -2.102634e-10 -3.523879e-11 0.000000e+00  -1.690254e-10 -3.901819e-11 0.000000e+00  -1.235758e-10 -4.202229e-11 0.000000e+00  -7.486881e-11 -4.423219e-11 0.000000e+00  -2.383755e-11 -4.561727e-11 0.000000e+00  2.858229e-11 -4.613705e-11 0.000000e+00  8.142207e-11 -4.578348e-11 0.000000e+00  1.337413e-10 -4.457725e-11 0.000000e+00  1.845611e-10 -4.252616e-11 0.000000e+00  2.328147e-10 -3.963067e-11 0.000000e+00  2.775528e-10 -3.592299e-11 0.000000e+00  3.180217e-10 -3.146011e-11 0.000000e+00  3.533732e-10 -2.628826e-11 0.000000e+00  3.826023e-10 -2.044980e-11 0.000000e+00  4.049540e-10 -1.401206e-11 0.000000e+00  4.200081e-10 -7.059774e-12 0.000000e+00  4.272123e-10 3.278314e-13 0.000000e+00  4.258106e-10 8.071863e-12 0.000000e+00  4.153844e-10 1.608030e-11 0.000000e+00  3.959450e-10 2.425332e-11 0.000000e+00  3.673666e-10 3.248952e-11 0.000000e+00  3.292940e-10 4.068477e-11 0.000000e+00  2.817319e-10 4.873702e-11 0.000000e+00  2.251579e-10 5.654690e-11 0.000000e+00  1.599446e-10 6.400592e-11 0.000000e+00  8.622856e-11 7.100114e-11 0.000000e+00  4.453585e-12 7.743778e-11 0.000000e+00  -8.447556e-11 8.323368e-11 0.000000e+00  -1.796903e-10 8.829112e-11 0.000000e+00  -2.805534e-10 9.250818e-11 0.000000e+00  -3.862464e-10 9.581543e-11 0.000000e+00  -4.955502e-10 9.816377e-11 0.000000e+00  -6.071875e-10 9.948500e-11 0.000000e+00  -7.201054e-10 9.970904e-11 0.000000e+00  -8.332535e-10 9.880821e-11 0.000000e+00  -9.452776e-10 9.677957e-11 0.000000e+00  -1.054663e-09 9.360146e-11 0.000000e+00  -1.160119e-09 8.925448e-11 0.000000e+00  -1.260573e-09 8.376503e-11 0.000000e+00  -1.354764e-09 7.718463e-11 0.000000e+00  -1.441184e-09 6.955079e-11 0.000000e+00  -1.518558e-09 6.090834e-11 0.000000e+00  -1.586048e-09 5.134370e-11 0.000000e+00  -1.642740e-09 4.096468e-11 0.000000e+00  -1.687416e-09 2.987354e-11 0.000000e+00  -1.719128e-09 1.818446e-11 0.000000e+00  -1.737531e-09 6.041414e-12 0.000000e+00  -1.742310e-09 -6.397156e-12 0.000000e+00  -1.732836e-09 -1.896806e-11 0.000000e+00  -1.708794e-09 -3.149383e-11 0.000000e+00  -1.670570e-09 -4.378489e-11 0.000000e+00  -1.618653e-09 -5.564626e-11 0.000000e+00  -1.553266e-09 -6.686862e-11 0.000000e+00  -1.474986e-09 -7.723067e-11 0.000000e+00  -1.385092e-09 -8.652007e-11 0.000000e+00  -1.285007e-09 -9.452875e-11 0.000000e+00  -1.175982e-09 -1.010301e-10 0.000000e+00  -1.059623e-09 -1.057962e-10 0.000000e+00  -9.381473e-10 -1.086309e-10 0.000000e+00  -8.139146e-10 -1.093552e-10 0.000000e+00  -6.892124e-10 -1.077834e-10 0.000000e+00  -5.666119e-10 -1.037593e-10 0.000000e+00  -4.490874e-10 -9.719820e-11 0.000000e+00  -3.396933e-10 -8.808964e-11 0.000000e+00  -2.413964e-10 -7.647922e-11 0.000000e+00  -1.572050e-10 -6.251991e-11 0.000000e+00  -9.026022e-11 -4.682775e-11 0.000000e+00  -4.320557e-11 -3.043079e-11 0.000000e+00  -1.795615e-11 -1.802203e-11 0.000000e+00  -1.335107e-11 -1.796090e-11 0.000000e+00  -4.699452e-12 1.965642e-12 0.000000e+00  5.563882e-08 -5.544681e-08 0.000000e+00  5.353467e-08 2.376089e-08 0.000000e+00  -1.518730e-07 1.526080e-07 0.000000e+00  -6.080866e-07 2.895175e-07 0.000000e+00  -1.314119e-06 4.172784e-07 0.000000e+00  -2.246698e-06 5.281674e-07 0.000000e+00  -3.371659e-06 6.189729e-07 0.000000e+00  -4.650351e-06 6.886787e-07 0.000000e+00  -6.042863e-06 7.374115e-07 0.000000e+00  -7.509847e-06 7.659448e-07 0.000000e+00  -9.013592e-06 7.754397e-07 0.000000e+00  -1.051872e-05 7.672936e-07 0.000000e+00  -1.199641e-05 7.433683e-07 0.000000e+00  -1.340560e-05 7.044349e-07 0.000000e+00  -1.472647e-05 6.528159e-07 0.000000e+00  -1.594688e-05 5.907825e-07 0.000000e+00  -1.703833e-05 5.195264e-07 0.000000e+00  -1.797167e-05 4.403253e-07 0.000000e+00  -1.874492e-05 3.553941e-07 0.000000e+00  -1.936285e-05 2.667908e-07 0.000000e+00  -1.980611e-05 1.756644e-07 0.000000e+00  -2.005533e-05 8.320364e-08 0.000000e+00  -2.012441e-05 -8.771577e-09 0.000000e+00  -2.003247e-05 -9.865210e-08 0.000000e+00  -1.976828e-05 -1.855190e-07 0.000000e+00  -1.932083e-05 -2.684484e-07 0.000000e+00  -1.871621e-05 -3.461757e-07 0.000000e+00  -1.798388e-05 -4.176696e-07 0.000000e+00  -1.711845e-05 -4.823502e-07 0.000000e+00  -1.611485e-05 -5.396521e-07 0.000000e+00  -1.500671e-05 -5.889298e-07 0.000000e+00  -1.382912e-05 -6.297689e-07 0.000000e+00  -1.257974e-05 -6.619619e-07 0.000000e+00  -1.125652e-05 -6.853186e-07 0.000000e+00  -9.895841e-06 -6.997948e-07 0.000000e+00  -8.533691e-06 -7.055546e-07 0.000000e+00  -7.167976e-06 -7.027289e-07 0.000000e+00  -5.796904e-06 -6.914561e-07 0.000000e+00  -4.455156e-06 -6.722088e-07 0.000000e+00  -3.175469e-06 -6.456319e-07 0.000000e+00  -1.953664e-06 -6.121095e-07 0.000000e+00  -7.859590e-07 -5.720139e-07 0.000000e+00  2.982218e-07 -5.262053e-07 0.000000e+00  1.272640e-06 -4.756708e-07 0.000000e+00  2.145082e-06 -4.209301e-07 0.000000e+00  2.922696e-06 -3.624671e-07 0.000000e+00  3.583770e-06 -3.013752e-07 0.000000e+00  4.110628e-06 -2.388257e-07 0.000000e+00  4.515212e-06 -1.753433e-07 0.000000e+00  4.808411e-06 -1.113928e-07 0.000000e+00  4.977437e-06 -4.814086e-08 0.000000e+00  5.013998e-06 1.321487e-08 0.000000e+00  4.933719e-06 7.227073e-08 0.000000e+00  4.750604e-06 1.287031e-07 0.000000e+00  4.460796e-06 1.814193e-07 0.000000e+00  4.065018e-06 2.293375e-07 0.000000e+00  3.581192e-06 2.722807e-07 0.000000e+00  3.024940e-06 3.101652e-07 0.000000e+00  2.400282e-06 3.420932e-07 0.000000e+00  1.715579e-06 3.672114e-07 0.000000e+00  9.889588e-07 3.856433e-07 0.000000e+00  2.355225e-07 3.976090e-07 0.000000e+00  -5.347035e-07 4.024899e-07 0.000000e+00  -1.307828e-06 3.997355e-07 0.000000e+00  -2.068034e-06 3.898027e-07 0.000000e+00  -2.803222e-06 3.732374e-07 0.000000e+00  -3.499719e-06 3.497413e-07 0.000000e+00  -4.140626e-06 3.190962e-07 0.000000e+00  -4.715036e-06 2.820807e-07 0.000000e+00  -5.216320e-06 2.395427e-07 0.000000e+00  -5.629667e-06 1.914990e-07 0.000000e+00  -5.937741e-06 1.380474e-07 0.000000e+00  -6.136866e-06 8.023040e-08 0.000000e+00  -6.227995e-06 1.912853e-08 0.000000e+00  -6.197462e-06 -4.497605e-08 0.000000e+00  -6.029768e-06 -1.117293e-07 0.000000e+00  -5.730162e-06 -1.799257e-07 0.000000e+00  -5.308579e-06 -2.483618e-07 0.000000e+00  -4.754242e-06 -3.165795e-07 0.000000e+00  -4.055133e-06 -3.840659e-07 0.000000e+00  -3.226193e-06 -4.495871e-07 0.000000e+00  -2.286742e-06 -5.119599e-07 0.000000e+00  -1.229813e-06 -5.706683e-07 0.000000e+00  -4.764344e-08 -6.251645e-07 0.000000e+00  1.235527e-06 -6.743445e-07 0.000000e+00  2.591790e-06 -7.172064e-07 0.000000e+00  4.024378e-06 -7.533111e-07 0.000000e+00  5.537048e-06 -7.822110e-07 0.000000e+00  7.097935e-06 -8.030965e-07 0.000000e+00  8.672618e-06 -8.153110e-07 0.000000e+00  1.026172e-05 -8.186244e-07 0.000000e+00  1.186629e-05 -8.128180e-07 0.000000e+00  1.344977e-05 -7.975288e-07 0.000000e+00  1.497451e-05 -7.725905e-07 0.000000e+00  1.644062e-05 -7.380928e-07 0.000000e+00  1.784864e-05 -6.941478e-07 0.000000e+00  1.916131e-05 -6.409570e-07 0.000000e+00  2.034205e-05 -5.789503e-07 0.000000e+00  2.139322e-05 -5.086051e-07 0.000000e+00  2.231772e-05 -4.304204e-07 0.000000e+00  2.308228e-05 -3.452253e-07 0.000000e+00  2.365626e-05 -2.540917e-07 0.000000e+00  2.404738e-05 -1.578937e-07 0.000000e+00  2.426392e-05 -5.750983e-08 0.000000e+00  2.428154e-05 4.561102e-08 0.000000e+00  2.408045e-05 1.497844e-07 0.000000e+00  2.367661e-05 2.538025e-07 0.000000e+00  2.308637e-05 3.564856e-07 0.000000e+00  2.229885e-05 4.558543e-07 0.000000e+00  2.130948e-05 5.497264e-07 0.000000e+00  2.014449e-05 6.366969e-07 0.000000e+00  1.883010e-05 7.154331e-07 0.000000e+00  1.737235e-05 7.836002e-07 0.000000e+00  1.578491e-05 8.387277e-07 0.000000e+00  1.410493e-05 8.794240e-07 0.000000e+00  1.236880e-05 9.044210e-07 0.000000e+00  1.060106e-05 9.113231e-07 0.000000e+00  8.834268e-06 8.977505e-07 0.000000e+00  7.114773e-06 8.627122e-07 0.000000e+00  5.486796e-06 8.054725e-07 0.000000e+00  3.990748e-06 7.244266e-07 0.000000e+00  2.672470e-06 6.187319e-07 0.000000e+00  1.577734e-06 4.899785e-07 0.000000e+00  7.438456e-07 3.419386e-07 0.000000e+00  1.994083e-07 1.826081e-07 0.000000e+00  -5.069450e-08 3.235286e-08 0.000000e+00  -6.049440e-08 -6.063352e-08 0.000000e+00  -1.370032e-11 -1.215426e-11 0.000000e+00  6.642114e-13 -2.657810e-12 0.000000e+00  -2.222538e-08 -5.426154e-08 0.000000e+00  -2.473705e-07 2.499935e-07 0.000000e+00  -8.289389e-07 6.994188e-07 0.000000e+00  -1.824639e-06 1.180938e-06 0.000000e+00  -3.236372e-06 1.636411e-06 0.000000e+00  -5.031043e-06 2.036654e-06 0.000000e+00  -7.155803e-06 2.367733e-06 0.000000e+00  -9.547616e-06 2.623951e-06 0.000000e+00  -1.213907e-05 2.804307e-06 0.000000e+00  -1.486206e-05 2.910609e-06 0.000000e+00  -1.765020e-05 2.946419e-06 0.000000e+00  -2.044035e-05 2.916442e-06 0.000000e+00  -2.318133e-05 2.827252e-06 0.000000e+00  -2.579636e-05 2.681450e-06 0.000000e+00  -2.825044e-05 2.487630e-06 0.000000e+00  -3.052262e-05 2.254231e-06 0.000000e+00  -3.255890e-05 1.985613e-06 0.000000e+00  -3.430377e-05 1.686536e-06 0.000000e+00  -3.575447e-05 1.365392e-06 0.000000e+00  -3.692094e-05 1.029956e-06 0.000000e+00  -3.776548e-05 6.845256e-07 0.000000e+00  -3.825019e-05 3.336167e-07 0.000000e+00  -3.840172e-05 -1.580464e-08 0.000000e+00  -3.825665e-05 -3.576208e-07 0.000000e+00  -3.779210e-05 -6.883637e-07 0.000000e+00  -3.698557e-05 -1.004483e-06 0.000000e+00  -3.588654e-05 -1.301102e-06 0.000000e+00  -3.455089e-05 -1.574286e-06 0.000000e+00  -3.296660e-05 -1.821834e-06 0.000000e+00  -3.112227e-05 -2.041540e-06 0.000000e+00  -2.908161e-05 -2.230886e-06 0.000000e+00  -2.691114e-05 -2.388286e-06 0.000000e+00  -2.460461e-05 -2.512942e-06 0.000000e+00  -2.215640e-05 -2.604075e-06 0.000000e+00  -1.963551e-05 -2.661465e-06 0.000000e+00  -1.711028e-05 -2.685740e-06 0.000000e+00  -1.457507e-05 -2.677386e-06 0.000000e+00  -1.202493e-05 -2.636873e-06 0.000000e+00  -9.525845e-06 -2.565972e-06 0.000000e+00  -7.140147e-06 -2.467154e-06 0.000000e+00  -4.858518e-06 -2.341864e-06 0.000000e+00  -2.672530e-06 -2.191468e-06 0.000000e+00  -6.384268e-07 -2.019236e-06 0.000000e+00  1.193605e-06 -1.828953e-06 0.000000e+00  2.839384e-06 -1.622580e-06 0.000000e+00  4.313343e-06 -1.401912e-06 0.000000e+00  5.573663e-06 -1.171127e-06 0.000000e+00  6.586233e-06 -9.347230e-07 0.000000e+00  7.374372e-06 -6.946736e-07 0.000000e+00  7.959205e-06 -4.527066e-07 0.000000e+00  8.315688e-06 -2.132957e-07 0.000000e+00  8.427381e-06 1.895423e-08 0.000000e+00  8.324211e-06 2.425385e-07 0.000000e+00  8.032823e-06 4.562637e-07 0.000000e+00  7.545020e-06 6.559252e-07 0.000000e+00  6.861399e-06 8.373586e-07 0.000000e+00  6.015897e-06 9.999315e-07 0.000000e+00  5.037879e-06 1.143362e-06 0.000000e+00  3.934067e-06 1.264181e-06 0.000000e+00  2.719571e-06 1.359097e-06 0.000000e+00  1.428413e-06 1.428632e-06 0.000000e+00  8.868032e-08 1.473660e-06 0.000000e+00  -1.281436e-06 1.491772e-06 0.000000e+00  -2.656243e-06 1.480837e-06 0.000000e+00  -4.006332e-06 1.442655e-06 0.000000e+00  -5.309520e-06 1.379339e-06 0.000000e+00  -6.540542e-06 1.289699e-06 0.000000e+00  -7.667818e-06 1.172877e-06 0.000000e+00  -8.671401e-06 1.031905e-06 0.000000e+00  -9.539618e-06 8.700441e-07 0.000000e+00  -1.024479e-05 6.873025e-07 0.000000e+00  -1.075426e-05 4.840352e-07 0.000000e+00  -1.106186e-05 2.642799e-07 0.000000e+00  -1.117032e-05 3.217873e-08 0.000000e+00  -1.105383e-05 -2.112502e-07 0.000000e+00  -1.068288e-05 -4.646702e-07 0.000000e+00  -1.006820e-05 -7.234244e-07 0.000000e+00  -9.229525e-06 -9.829138e-07 0.000000e+00  -8.146126e-06 -1.241451e-06 0.000000e+00  -6.794732e-06 -1.497089e-06 0.000000e+00  -5.204361e-06 -1.745074e-06 0.000000e+00  -3.412392e-06 -1.980896e-06 0.000000e+00  -1.404925e-06 -2.202650e-06 0.000000e+00  8.336313e-07 -2.408255e-06 0.000000e+00  3.256791e-06 -2.593463e-06 0.000000e+00  5.811082e-06 -2.754474e-06 0.000000e+00  8.503726e-06 -2.889678e-06 0.000000e+00  1.134310e-05 -2.997375e-06 0.000000e+00  1.426844e-05 -3.074456e-06 0.000000e+00  1.721416e-05 -3.118453e-06 0.000000e+00  2.018290e-05 -3.128553e-06 0.000000e+00  2.317820e-05 -3.103931e-06 0.000000e+00  2.613061e-05 -3.043195e-06 0.000000e+00  2.896861e-05 -2.945762e-06 0.000000e+00  3.169413e-05 -2.812033e-06 0.000000e+00  3.431001e-05 -2.642443e-06 0.000000e+00  3.674556e-05 -2.437767e-06 0.000000e+00  3.893145e-05 -2.199704e-06 0.000000e+00  4.087402e-05 -1.930123e-06 0.000000e+00  4.258061e-05 -1.630926e-06 0.000000e+00  4.398815e-05 -1.305291e-06 0.000000e+00  4.503860e-05 -9.573636e-07 0.000000e+00  4.574838e-05 -5.905028e-07 0.000000e+00  4.613488e-05 -2.080430e-07 0.000000e+00  4.615184e-05 1.844754e-07 0.000000e+00  4.576163e-05 5.805930e-07 0.000000e+00  4.499593e-05 9.757175e-07 0.000000e+00  4.388704e-05 1.365394e-06 0.000000e+00  4.241381e-05 1.742087e-06 0.000000e+00  4.056696e-05 2.097497e-06 0.000000e+00  3.839695e-05 2.426355e-06 0.000000e+00  3.595401e-05 2.723687e-06 0.000000e+00  3.324818e-05 2.980693e-06 0.000000e+00  3.030366e-05 3.188123e-06 0.000000e+00  2.719027e-05 3.340932e-06 0.000000e+00  2.397597e-05 3.434579e-06 0.000000e+00  2.070391e-05 3.460315e-06 0.000000e+00  1.743159e-05 3.409663e-06 0.000000e+00  1.424333e-05 3.279624e-06 0.000000e+00  1.121833e-05 3.068337e-06 0.000000e+00  8.424937e-06 2.771027e-06 0.000000e+00  5.939437e-06 2.386371e-06 0.000000e+00  3.837939e-06 1.922614e-06 0.000000e+00  2.178615e-06 1.396064e-06 0.000000e+00  1.000723e-06 8.368969e-07 0.000000e+00  3.084037e-07 3.111688e-07 0.000000e+00  3.183787e-08 -5.047801e-08 0.000000e+00  -1.350068e-11 -1.609672e-11 0.000000e+00  4.190396e-12 -3.976747e-12 0.000000e+00  -1.496803e-07 1.480785e-07 0.000000e+00  -6.949051e-07 8.313024e-07 0.000000e+00  -1.742646e-06 1.745849e-06 0.000000e+00  -3.333218e-06 2.714147e-06 0.000000e+00  -5.459544e-06 3.633915e-06 0.000000e+00  -8.078730e-06 4.447963e-06 0.000000e+00  -1.112484e-05 5.125877e-06 0.000000e+00  -1.451813e-05 5.653354e-06 0.000000e+00  -1.817180e-05 6.026029e-06 0.000000e+00  -2.199677e-05 6.245847e-06 0.000000e+00  -2.590502e-05 6.318883e-06 0.000000e+00  -2.981199e-05 6.253989e-06 0.000000e+00  -3.364971e-05 6.064313e-06 0.000000e+00  -3.731029e-05 5.754660e-06 0.000000e+00  -4.074782e-05 5.342900e-06 0.000000e+00  -4.393569e-05 4.846735e-06 0.000000e+00  -4.679717e-05 4.275139e-06 0.000000e+00  -4.925303e-05 3.638018e-06 0.000000e+00  -5.130116e-05 2.953227e-06 0.000000e+00  -5.295714e-05 2.237345e-06 0.000000e+00  -5.416609e-05 1.499441e-06 0.000000e+00  -5.487255e-05 7.490910e-07 0.000000e+00  -5.511520e-05 1.252643e-09 0.000000e+00  -5.494671e-05 -7.309317e-07 0.000000e+00  -5.433247e-05 -1.440069e-06 0.000000e+00  -5.323827e-05 -2.118555e-06 0.000000e+00  -5.173479e-05 -2.755856e-06 0.000000e+00  -4.990180e-05 -3.343477e-06 0.000000e+00  -4.771977e-05 -3.876686e-06 0.000000e+00  -4.516999e-05 -4.350707e-06 0.000000e+00  -4.234329e-05 -4.760061e-06 0.000000e+00  -3.933447e-05 -5.101294e-06 0.000000e+00  -3.613215e-05 -5.372654e-06 0.000000e+00  -3.272588e-05 -5.572393e-06 0.000000e+00  -2.921409e-05 -5.699985e-06 0.000000e+00  -2.569427e-05 -5.756753e-06 0.000000e+00  -2.215610e-05 -5.743677e-06 0.000000e+00  -1.859033e-05 -5.661677e-06 0.000000e+00  -1.509130e-05 -5.514533e-06 0.000000e+00  -1.174814e-05 -5.307551e-06 0.000000e+00  -8.545646e-06 -5.043766e-06 0.000000e+00  -5.470039e-06 -4.726013e-06 0.000000e+00  -2.602046e-06 -4.361320e-06 0.000000e+00  -1.374054e-08 -3.957857e-06 0.000000e+00  2.318889e-06 -3.519749e-06 0.000000e+00  4.417646e-06 -3.050755e-06 0.000000e+00  6.222091e-06 -2.559887e-06 0.000000e+00  7.682823e-06 -2.056870e-06 0.000000e+00  8.834016e-06 -1.545855e-06 0.000000e+00  9.706454e-06 -1.030451e-06 0.000000e+00  1.026338e-05 -5.203333e-07 0.000000e+00  1.048038e-05 -2.547631e-08 0.000000e+00  1.040054e-05 4.509818e-07 0.000000e+00  1.006194e-05 9.065826e-07 0.000000e+00  9.451702e-06 1.332210e-06 0.000000e+00  8.569607e-06 1.718822e-06 0.000000e+00  7.463939e-06 2.065162e-06 0.000000e+00  6.176182e-06 2.370734e-06 0.000000e+00  4.714678e-06 2.627987e-06 0.000000e+00  3.099902e-06 2.829753e-06 0.000000e+00  1.379844e-06 2.977260e-06 0.000000e+00  -4.062412e-07 3.072498e-06 0.000000e+00  -2.233577e-06 3.110190e-06 0.000000e+00  -4.066474e-06 3.085655e-06 0.000000e+00  -5.863838e-06 3.002875e-06 0.000000e+00  -7.595125e-06 2.866504e-06 0.000000e+00  -9.225256e-06 2.673878e-06 0.000000e+00  -1.070990e-05 2.423060e-06 0.000000e+00  -1.202166e-05 2.120673e-06 0.000000e+00  -1.314512e-05 1.773833e-06 0.000000e+00  -1.404144e-05 1.382454e-06 0.000000e+00  -1.466438e-05 9.472050e-07 0.000000e+00  -1.500625e-05 4.768675e-07 0.000000e+00  -1.507221e-05 -1.956552e-08 0.000000e+00  -1.482562e-05 -5.400088e-07 0.000000e+00  -1.422428e-05 -1.081680e-06 0.000000e+00  -1.328454e-05 -1.634482e-06 0.000000e+00  -1.203567e-05 -2.188462e-06 0.000000e+00  -1.044777e-05 -2.740095e-06 0.000000e+00  -8.486997e-06 -3.285289e-06 0.000000e+00  -6.195600e-06 -3.813755e-06 0.000000e+00  -3.627824e-06 -4.315763e-06 0.000000e+00  -7.628977e-07 -4.787322e-06 0.000000e+00  2.422618e-06 -5.224046e-06 0.000000e+00  5.861810e-06 -5.616767e-06 0.000000e+00  9.477771e-06 -5.957310e-06 0.000000e+00  1.328232e-05 -6.242317e-06 0.000000e+00  1.728914e-05 -6.468217e-06 0.000000e+00  2.141124e-05 -6.628323e-06 0.000000e+00  2.555474e-05 -6.717357e-06 0.000000e+00  2.972541e-05 -6.733667e-06 0.000000e+00  3.393051e-05 -6.675551e-06 0.000000e+00  3.807085e-05 -6.540046e-06 0.000000e+00  4.204442e-05 -6.325952e-06 0.000000e+00  4.585631e-05 -6.034216e-06 0.000000e+00  4.951301e-05 -5.665823e-06 0.000000e+00  5.291377e-05 -5.222490e-06 0.00000