<?xml version="1.0"?>
<VTKFile type="UnstructuredGrid"  version="0.1"  >
<UnstructuredGrid>
<Piece  NumberOfPoints="16641" NumberOfCells="32768">
<Points>
<DataArray  type="Float32"  NumberOfComponents="3"  format="ascii">0 0 0  0.0078125 0 0  0.015625 0 0  0.0234375 0 0  0.03125 0 0  0.0390625 0 0  0.046875 0 0  0.0546875 0 0  0.0625 0 0  0.0703125 0 0  0.078125 0 0  0.0859375 0 0  0.09375 0 0  0.101562 0 0  0.109375 0 0  0.117188 0 0  0.125 0 0  0.132812 0 0  0.140625 0 0  0.148438 0 0  0.15625 0 0  0.164062 0 0  0.171875 0 0  0.179688 0 0  0.1875 0 0  0.195312 0 0  0.203125 0 0  0.210938 0 0  0.21875 0 0  0.226562 0 0  0.234375 0 0  0.242188 0 0  0.25 0 0  0.257812 0 0  0.265625 0 0  0.273438 0 0  0.28125 0 0  0.289062 0 0  0.296875 0 0  0.304688 0 0  0.3125 0 0  0.320312 0 0  0.328125 0 0  0.335938 0 0  0.34375 0 0  0.351562 0 0  0.359375 0 0  0.367188 0 0  0.375 0 0  0.382812 0 0  0.390625 0 0  0.398438 0 0  0.40625 0 0  0.414062 0 0  0.421875 0 0  0.429688 0 0  0.4375 0 0  0.445312 0 0  0.453125 0 0  0.460938 0 0  0.46875 0 0  0.476562 0 0  0.484375 0 0  0.492188 0 0  0.5 0 0  0.507812 0 0  0.515625 0 0  0.523438 0 0  0.53125 0 0  0.539062 0 0  0.546875 0 0  0.554688 0 0  0.5625 0 0  0.570312 0 0  0.578125 0 0  0.585938 0 0  0.59375 0 0  0.601562 0 0  0.609375 0 0  0.617188 0 0  0.625 0 0  0.632812 0 0  0.640625 0 0  0.648438 0 0  0.65625 0 0  0.664062 0 0  0.671875 0 0  0.679688 0 0  0.6875 0 0  0.695312 0 0  0.703125 0 0  0.710938 0 0  0.71875 0 0  0.726562 0 0  0.734375 0 0  0.742188 0 0  0.75 0 0  0.757812 0 0  0.765625 0 0  0.773438 0 0  0.78125 0 0  0.789062 0 0  0.796875 0 0  0.804688 0 0  0.8125 0 0  0.820312 0 0  0.828125 0 0  0.835938 0 0  0.84375 0 0  0.851562 0 0  0.859375 0 0  0.867188 0 0  0.875 0 0  0.882812 0 0  0.890625 0 0  0.898438 0 0  0.90625 0 0  0.914062 0 0  0.921875 0 0  0.929688 0 0  0.9375 0 0  0.945312 0 0  0.953125 0 0  0.960938 0 0  0.96875 0 0  0.976562 0 0  0.984375 0 0  0.992188 0 0  1 0 0  0 0.0078125 0  0.0078125 0.0078125 0  0.015625 0.0078125 0  0.0234375 0.0078125 0  0.03125 0.0078125 0  0.0390625 0.0078125 0  0.046875 0.0078125 0  0.0546875 0.0078125 0  0.0625 0.0078125 0  0.0703125 0.0078125 0  0.078125 0.0078125 0  0.0859375 0.0078125 0  0.09375 0.0078125 0  0.101562 0.0078125 0  0.109375 0.0078125 0  0.117188 0.0078125 0  0.125 0.0078125 0  0.132812 0.0078125 0  0.140625 0.0078125 0  0.148438 0.0078125 0  0.15625 0.0078125 0  0.164062 0.0078125 0  0.171875 0.0078125 0  0.179688 0.0078125 0  0.1875 0.0078125 0  0.195312 0.0078125 0  0.203125 0.0078125 0  0.210938 0.0078125 0  0.21875 0.0078125 0  0.226562 0.0078125 0  0.234375 0.0078125 0  0.242188 0.0078125 0  0.25 0.0078125 0  0.257812 0.0078125 0  0.265625 0.0078125 0  0.273438 0.0078125 0  0.28125 0.0078125 0  0.289062 0.0078125 0  0.296875 0.0078125 0  0.304688 0.0078125 0  0.3125 0.0078125 0  0.320312 0.0078125 0  0.328125 0.0078125 0  0.335938 0.0078125 0  0.34375 0.0078125 0  0.351562 0.0078125 0  0.359375 0.0078125 0  0.367188 0.0078125 0  0.375 0.0078125 0  0.382812 0.0078125 0  0.390625 0.0078125 0  0.398438 0.0078125 0  0.40625 0.0078125 0  0.414062 0.0078125 0  0.421875 0.0078125 0  0.429688 0.0078125 0  0.4375 0.0078125 0  0.445312 0.0078125 0  0.453125 0.0078125 0  0.460938 0.0078125 0  0.46875 0.0078125 0  0.476562 0.0078125 0  0.484375 0.0078125 0  0.492188 0.0078125 0  0.5 0.0078125 0  0.507812 0.0078125 0  0.515625 0.0078125 0  0.523438 0.0078125 0  0.53125 0.0078125 0  0.539062 0.0078125 0  0.546875 0.0078125 0  0.554688 0.0078125 0  0.5625 0.0078125 0  0.570312 0.0078125 0  0.578125 0.0078125 0  0.585938 0.0078125 0  0.59375 0.0078125 0  0.601562 0.0078125 0  0.609375 0.0078125 0  0.617188 0.0078125 0  0.625 0.0078125 0  0.632812 0.0078125 0  0.640625 0.0078125 0  0.648438 0.0078125 0  0.65625 0.0078125 0  0.664062 0.0078125 0  0.671875 0.0078125 0  0.679688 0.0078125 0  0.6875 0.0078125 0  0.695312 0.0078125 0  0.703125 0.0078125 0  0.710938 0.0078125 0  0.71875 0.0078125 0  0.726562 0.0078125 0  0.734375 0.0078125 0  0.742188 0.0078125 0  0.75 0.0078125 0  0.757812 0.0078125 0  0.765625 0.0078125 0  0.773438 0.0078125 0  0.78125 0.0078125 0  0.789062 0.0078125 0  0.796875 0.0078125 0  0.804688 0.0078125 0  0.8125 0.0078125 0  0.820312 0.0078125 0  0.828125 0.0078125 0  0.835938 0.0078125 0  0.84375 0.0078125 0  0.851562 0.0078125 0  0.859375 0.0078125 0  0.867188 0.0078125 0  0.875 0.0078125 0  0.882812 0.0078125 0  0.890625 0.0078125 0  0.898438 0.0078125 0  0.90625 0.0078125 0  0.914062 0.0078125 0  0.921875 0.0078125 0  0.929688 0.0078125 0  0.9375 0.0078125 0  0.945312 0.0078125 0  0.953125 0.0078125 0  0.960938 0.0078125 0  0.96875 0.0078125 0  0.976562 0.0078125 0  0.984375 0.0078125 0  0.992188 0.0078125 0  1 0.0078125 0  0 0.015625 0  0.0078125 0.015625 0  0.015625 0.015625 0  0.0234375 0.015625 0  0.03125 0.015625 0  0.0390625 0.015625 0  0.046875 0.015625 0  0.0546875 0.015625 0  0.0625 0.015625 0  0.0703125 0.015625 0  0.078125 0.015625 0  0.0859375 0.015625 0  0.09375 0.015625 0  0.101562 0.015625 0  0.109375 0.015625 0  0.117188 0.015625 0  0.125 0.015625 0  0.132812 0.015625 0  0.140625 0.015625 0  0.148438 0.015625 0  0.15625 0.015625 0  0.164062 0.015625 0  0.171875 0.015625 0  0.179688 0.015625 0  0.1875 0.015625 0  0.195312 0.015625 0  0.203125 0.015625 0  0.210938 0.015625 0  0.21875 0.015625 0  0.226562 0.015625 0  0.234375 0.015625 0  0.242188 0.015625 0  0.25 0.015625 0  0.257812 0.015625 0  0.265625 0.015625 0  0.273438 0.015625 0  0.28125 0.015625 0  0.289062 0.015625 0  0.296875 0.015625 0  0.304688 0.015625 0  0.3125 0.015625 0  0.320312 0.015625 0  0.328125 0.015625 0  0.335938 0.015625 0  0.34375 0.015625 0  0.351562 0.015625 0  0.359375 0.015625 0  0.367188 0.015625 0  0.375 0.015625 0  0.382812 0.015625 0  0.390625 0.015625 0  0.398438 0.015625 0  0.40625 0.015625 0  0.414062 0.015625 0  0.421875 0.015625 0  0.429688 0.015625 0  0.4375 0.015625 0  0.445312 0.015625 0  0.453125 0.015625 0  0.460938 0.015625 0  0.46875 0.015625 0  0.476562 0.015625 0  0.484375 0.015625 0  0.492188 0.015625 0  0.5 0.015625 0  0.507812 0.015625 0  0.515625 0.015625 0  0.523438 0.015625 0  0.53125 0.015625 0  0.539062 0.015625 0  0.546875 0.015625 0  0.554688 0.015625 0  0.5625 0.015625 0  0.570312 0.015625 0  0.578125 0.015625 0  0.585938 0.015625 0  0.59375 0.015625 0  0.601562 0.015625 0  0.609375 0.015625 0  0.617188 0.015625 0  0.625 0.015625 0  0.632812 0.015625 0  0.640625 0.015625 0  0.648438 0.015625 0  0.65625 0.015625 0  0.664062 0.015625 0  0.671875 0.015625 0  0.679688 0.015625 0  0.6875 0.015625 0  0.695312 0.015625 0  0.703125 0.015625 0  0.710938 0.015625 0  0.71875 0.015625 0  0.726562 0.015625 0  0.734375 0.015625 0  0.742188 0.015625 0  0.75 0.015625 0  0.757812 0.015625 0  0.765625 0.015625 0  0.773438 0.015625 0  0.78125 0.015625 0  0.789062 0.015625 0  0.796875 0.015625 0  0.804688 0.015625 0  0.8125 0.015625 0  0.820312 0.015625 0  0.828125 0.015625 0  0.835938 0.015625 0  0.84375 0.015625 0  0.851562 0.015625 0  0.859375 0.015625 0  0.867188 0.015625 0  0.875 0.015625 0  0.882812 0.015625 0  0.890625 0.015625 0  0.898438 0.015625 0  0.90625 0.015625 0  0.914062 0.015625 0  0.921875 0.015625 0  0.929688 0.015625 0  0.9375 0.015625 0  0.945312 0.015625 0  0.953125 0.015625 0  0.960938 0.015625 0  0.96875 0.015625 0  0.976562 0.015625 0  0.984375 0.015625 0  0.992188 0.015625 0  1 0.015625 0  0 0.0234375 0  0.0078125 0.0234375 0  0.015625 0.0234375 0  0.0234375 0.0234375 0  0.03125 0.0234375 0  0.0390625 0.0234375 0  0.046875 0.0234375 0  0.0546875 0.0234375 0  0.0625 0.0234375 0  0.0703125 0.0234375 0  0.078125 0.0234375 0  0.0859375 0.0234375 0  0.09375 0.0234375 0  0.101562 0.0234375 0  0.109375 0.0234375 0  0.117188 0.0234375 0  0.125 0.0234375 0  0.132812 0.0234375 0  0.140625 0.0234375 0  0.148438 0.0234375 0  0.15625 0.0234375 0  0.164062 0.0234375 0  0.171875 0.0234375 0  0.179688 0.0234375 0  0.1875 0.0234375 0  0.195312 0.0234375 0  0.203125 0.0234375 0  0.210938 0.0234375 0  0.21875 0.0234375 0  0.226562 0.0234375 0  0.234375 0.0234375 0  0.242188 0.0234375 0  0.25 0.0234375 0  0.257812 0.0234375 0  0.265625 0.0234375 0  0.273438 0.0234375 0  0.28125 0.0234375 0  0.289062 0.0234375 0  0.296875 0.0234375 0  0.304688 0.0234375 0  0.3125 0.0234375 0  0.320312 0.0234375 0  0.328125 0.0234375 0  0.335938 0.0234375 0  0.34375 0.0234375 0  0.351562 0.0234375 0  0.359375 0.0234375 0  0.367188 0.0234375 0  0.375 0.0234375 0  0.382812 0.0234375 0  0.390625 0.0234375 0  0.398438 0.0234375 0  0.40625 0.0234375 0  0.414062 0.0234375 0  0.421875 0.0234375 0  0.429688 0.0234375 0  0.4375 0.0234375 0  0.445312 0.0234375 0  0.453125 0.0234375 0  0.460938 0.0234375 0  0.46875 0.0234375 0  0.476562 0.0234375 0  0.484375 0.0234375 0  0.492188 0.0234375 0  0.5 0.0234375 0  0.507812 0.0234375 0  0.515625 0.0234375 0  0.523438 0.0234375 0  0.53125 0.0234375 0  0.539062 0.0234375 0  0.546875 0.0234375 0  0.554688 0.0234375 0  0.5625 0.0234375 0  0.570312 0.0234375 0  0.578125 0.0234375 0  0.585938 0.0234375 0  0.59375 0.0234375 0  0.601562 0.0234375 0  0.609375 0.0234375 0  0.617188 0.0234375 0  0.625 0.0234375 0  0.632812 0.0234375 0  0.640625 0.0234375 0  0.648438 0.0234375 0  0.65625 0.0234375 0  0.664062 0.0234375 0  0.671875 0.0234375 0  0.679688 0.0234375 0  0.6875 0.0234375 0  0.695312 0.0234375 0  0.703125 0.0234375 0  0.710938 0.0234375 0  0.71875 0.0234375 0  0.726562 0.0234375 0  0.734375 0.0234375 0  0.742188 0.0234375 0  0.75 0.0234375 0  0.757812 0.0234375 0  0.765625 0.0234375 0  0.773438 0.0234375 0  0.78125 0.0234375 0  0.789062 0.0234375 0  0.796875 0.0234375 0  0.804688 0.0234375 0  0.8125 0.0234375 0  0.820312 0.0234375 0  0.828125 0.0234375 0  0.835938 0.0234375 0  0.84375 0.0234375 0  0.851562 0.0234375 0  0.859375 0.0234375 0  0.867188 0.0234375 0  0.875 0.0234375 0  0.882812 0.0234375 0  0.890625 0.0234375 0  0.898438 0.0234375 0  0.90625 0.0234375 0  0.914062 0.0234375 0  0.921875 0.0234375 0  0.929688 0.0234375 0  0.9375 0.0234375 0  0.945312 0.0234
[...]
<PointData  Vectors="u"> 
<DataArray  type="Float32"  Name="u"  NumberOfComponents="3" format="ascii">2.987535e-12 1.153022e-12 0.000000e+00  -1.205579e-12 1.655637e-12 0.000000e+00  2.735037e-12 -5.976149e-12 0.000000e+00  5.289990e-12 -1.361862e-11 0.000000e+00  2.137248e-11 -2.572759e-11 0.000000e+00  5.219810e-11 -3.918664e-11 0.000000e+00  9.930031e-11 -5.244734e-11 0.000000e+00  1.618455e-10 -6.446888e-11 0.000000e+00  2.379581e-10 -7.461581e-11 0.000000e+00  3.252577e-10 -8.258342e-11 0.000000e+00  4.211465e-10 -8.826678e-11 0.000000e+00  5.229604e-10 -9.167665e-11 0.000000e+00  6.282134e-10 -9.290511e-11 0.000000e+00  7.341953e-10 -9.205802e-11 0.000000e+00  8.388013e-10 -8.932002e-11 0.000000e+00  9.398505e-10 -8.486184e-11 0.000000e+00  1.035316e-09 -7.886694e-11 0.000000e+00  1.123635e-09 -7.154657e-11 0.000000e+00  1.203462e-09 -6.310987e-11 0.000000e+00  1.273397e-09 -5.375015e-11 0.000000e+00  1.332322e-09 -4.366658e-11 0.000000e+00  1.379681e-09 -3.306647e-11 0.000000e+00  1.415049e-09 -2.213992e-11 0.000000e+00  1.437857e-09 -1.106221e-11 0.000000e+00  1.447876e-09 -1.198128e-14 0.000000e+00  1.445446e-09 1.084260e-11 0.000000e+00  1.430905e-09 2.136004e-11 0.000000e+00  1.404391e-09 3.140592e-11 0.000000e+00  1.366423e-09 4.084357e-11 0.000000e+00  1.318010e-09 4.956234e-11 0.000000e+00  1.260003e-09 5.748263e-11 0.000000e+00  1.193041e-09 6.452279e-11 0.000000e+00  1.118174e-09 7.059984e-11 0.000000e+00  1.036794e-09 7.566695e-11 0.000000e+00  9.499802e-10 7.970766e-11 0.000000e+00  8.586322e-10 8.269583e-11 0.000000e+00  7.640747e-10 8.460536e-11 0.000000e+00  6.677899e-10 8.544962e-11 0.000000e+00  5.708155e-10 8.526698e-11 0.000000e+00  4.740744e-10 8.408177e-11 0.000000e+00  3.789078e-10 8.192033e-11 0.000000e+00  2.866297e-10 7.884483e-11 0.000000e+00  1.980205e-10 7.493337e-11 0.000000e+00  1.138217e-10 7.024961e-11 0.000000e+00  3.516550e-11 6.486170e-11 0.000000e+00  -3.699709e-11 5.886394e-11 0.000000e+00  -1.022818e-10 5.235550e-11 0.000000e+00  -1.602750e-10 4.542419e-11 0.000000e+00  -2.102212e-10 3.816500e-11 0.000000e+00  -2.516461e-10 3.068548e-11 0.000000e+00  -2.846132e-10 2.308646e-11 0.000000e+00  -3.091112e-10 1.546319e-11 0.000000e+00  -3.248568e-10 7.920402e-12 0.000000e+00  -3.318782e-10 5.602844e-13 0.000000e+00  -3.306548e-10 -6.531990e-12 0.000000e+00  -3.215775e-10 -1.326997e-11 0.000000e+00  -3.048508e-10 -1.955633e-11 0.000000e+00  -2.809513e-10 -2.531024e-11 0.000000e+00  -2.506715e-10 -3.047549e-11 0.000000e+00  -2.147359e-10 -3.498844e-11 0.000000e+00  -1.737760e-10 -3.877436e-11 0.000000e+00  -1.285965e-10 -4.178553e-11 0.000000e+00  -8.015245e-11 -4.400293e-11 0.000000e+00  -2.937608e-11 -4.539591e-11 0.000000e+00  2.279887e-11 -4.592396e-11 0.000000e+00  7.540366e-11 -4.557897e-11 0.000000e+00  1.274964e-10 -4.438154e-11 0.000000e+00  1.780990e-10 -4.233942e-11 0.000000e+00  2.261467e-10 -3.945308e-11 0.000000e+00  2.706896e-10 -3.575471e-11 0.000000e+00  3.109724e-10 -3.130119e-11 0.000000e+00  3.461475e-10 -2.613880e-11 0.000000e+00  3.752119e-10 -2.030990e-11 0.000000e+00  3.974101e-10 -1.388183e-11 0.000000e+00  4.123200e-10 -6.939339e-12 0.000000e+00  4.193900e-10 4.383061e-13 0.000000e+00  4.178664e-10 8.172108e-12 0.000000e+00  4.073302e-10 1.616997e-11 0.000000e+00  3.877910e-10 2.433198e-11 0.000000e+00  3.591242e-10 3.255659e-11 0.000000e+00  3.209774e-10 4.073953e-11 0.000000e+00  2.733554e-10 4.877859e-11 0.000000e+00  2.167346e-10 5.657426e-11 0.000000e+00  1.514897e-10 6.401786e-11 0.000000e+00  7.776068e-11 7.099631e-11 0.000000e+00  -4.007705e-12 7.741474e-11 0.000000e+00  -9.291117e-11 8.319083e-11 0.000000e+00  -1.880785e-10 8.822683e-11 0.000000e+00  -2.888686e-10 9.242083e-11 0.000000e+00  -3.944616e-10 9.570348e-11 0.000000e+00  -5.036387e-10 9.802576e-11 0.000000e+00  -6.151203e-10 9.931970e-11 0.000000e+00  -7.278500e-10 9.951558e-11 0.000000e+00  -8.407771e-10 9.858609e-11 0.000000e+00  -9.525488e-10 9.652868e-11 0.000000e+00  -1.061649e-09 9.332228e-11 0.000000e+00  -1.166787e-09 8.894811e-11 0.000000e+00  -1.266891e-09 8.343318e-11 0.000000e+00  -1.360706e-09 7.682959e-11 0.000000e+00  -1.446722e-09 6.917548e-11 0.000000e+00  -1.523669e-09 6.051637e-11 0.000000e+00  -1.590713e-09 5.093915e-11 0.000000e+00  -1.646946e-09 4.055204e-11 0.000000e+00  -1.691154e-09 2.945760e-11 0.000000e+00  -1.722395e-09 1.777035e-11 0.000000e+00  -1.740330e-09 5.634326e-12 0.000000e+00  -1.744649e-09 -6.792198e-12 0.000000e+00  -1.734730e-09 -1.934617e-11 0.000000e+00  -1.710263e-09 -3.185033e-11 0.000000e+00  -1.671639e-09 -4.411557e-11 0.000000e+00  -1.619352e-09 -5.594748e-11 0.000000e+00  -1.553630e-09 -6.713732e-11 0.000000e+00  -1.475051e-09 -7.746436e-11 0.000000e+00  -1.384899e-09 -8.671700e-11 0.000000e+00  -1.284598e-09 -9.468794e-11 0.000000e+00  -1.175400e-09 -1.011513e-10 0.000000e+00  -1.058912e-09 -1.058798e-10 0.000000e+00  -9.373492e-10 -1.086781e-10 0.000000e+00  -8.130710e-10 -1.093680e-10 0.000000e+00  -6.883622e-10 -1.077647e-10 0.000000e+00  -5.657912e-10 -1.037125e-10 0.000000e+00  -4.483279e-10 -9.712780e-11 0.000000e+00  -3.390214e-10 -8.800091e-11 0.000000e+00  -2.408326e-10 -7.637835e-11 0.000000e+00  -1.567623e-10 -6.241446e-11 0.000000e+00  -8.994317e-11 -4.672733e-11 0.000000e+00  -4.300404e-11 -3.034359e-11 0.000000e+00  -1.782941e-11 -1.794322e-11 0.000000e+00  -1.323139e-11 -1.786986e-11 0.000000e+00  -4.695841e-12 1.962691e-12 0.000000e+00  5.567910e-08 -5.548761e-08 0.000000e+00  5.390134e-08 2.350523e-08 0.000000e+00  -1.507738e-07 1.521333e-07 0.000000e+00  -6.058878e-07 2.888639e-07 0.000000e+00  -1.310534e-06 4.164961e-07 0.000000e+00  -2.241533e-06 5.273062e-07 0.000000e+00  -3.364811e-06 6.180796e-07 0.000000e+00  -4.641801e-06 6.877954e-07 0.000000e+00  -6.032668e-06 7.365761e-07 0.000000e+00  -7.498131e-06 7.651906e-07 0.000000e+00  -9.000543e-06 7.747956e-07 0.000000e+00  -1.050458e-05 7.667838e-07 0.000000e+00  -1.198145e-05 7.430125e-07 0.000000e+00  -1.339013e-05 7.042476e-07 0.000000e+00  -1.471083e-05 6.528070e-07 0.000000e+00  -1.593143e-05 5.909562e-07 0.000000e+00  -1.702341e-05 5.198821e-07 0.000000e+00  -1.795764e-05 4.408567e-07 0.000000e+00  -1.873210e-05 3.560900e-07 0.000000e+00  -1.935154e-05 2.676347e-07 0.000000e+00  -1.979659e-05 1.766354e-07 0.000000e+00  -2.004781e-05 8.427657e-08 0.000000e+00  -2.011906e-05 -7.625090e-09 0.000000e+00  -2.002941e-05 -9.746308e-08 0.000000e+00  -1.976754e-05 -1.843201e-07 0.000000e+00  -1.932242e-05 -2.672729e-07 0.000000e+00  -1.872004e-05 -3.450567e-07 0.000000e+00  -1.798981e-05 -4.166387e-07 0.000000e+00  -1.712628e-05 -4.814367e-07 0.000000e+00  -1.612432e-05 -5.388823e-07 0.000000e+00  -1.501752e-05 -5.883264e-07 0.000000e+00  -1.384093e-05 -6.293501e-07 0.000000e+00  -1.259216e-05 -6.617415e-07 0.000000e+00  -1.126917e-05 -6.853058e-07 0.000000e+00  -9.908294e-06 -6.999942e-07 0.000000e+00  -8.545537e-06 -7.059663e-07 0.000000e+00  -7.178800e-06 -7.033492e-07 0.000000e+00  -5.806303e-06 -6.922777e-07 0.000000e+00  -4.462743e-06 -6.732214e-07 0.000000e+00  -3.180879e-06 -6.468227e-07 0.000000e+00  -1.956560e-06 -6.134637e-07 0.000000e+00  -7.860324e-07 -5.735156e-07 0.000000e+00  3.012471e-07 -5.278377e-07 0.000000e+00  1.279006e-06 -4.774167e-07 0.000000e+00  2.154999e-06 -4.227723e-07 0.000000e+00  2.936341e-06 -3.643890e-07 0.000000e+00  3.601286e-06 -3.033605e-07 0.000000e+00  4.132129e-06 -2.408592e-07 0.000000e+00  4.540782e-06 -1.774107e-07 0.000000e+00  4.838106e-06 -1.134809e-07 0.000000e+00  5.011289e-06 -5.023743e-08 0.000000e+00  5.052016e-06 1.112084e-08 0.000000e+00  4.975891e-06 7.018919e-08 0.000000e+00  4.796899e-06 1.266430e-07 0.000000e+00  4.511167e-06 1.793886e-07 0.000000e+00  4.119401e-06 2.273431e-07 0.000000e+00  3.639512e-06 2.703290e-07 0.000000e+00  3.087110e-06 3.082616e-07 0.000000e+00  2.466204e-06 3.402425e-07 0.000000e+00  1.785145e-06 3.654177e-07 0.000000e+00  1.062054e-06 3.839103e-07 0.000000e+00  3.120260e-07 3.959398e-07 0.000000e+00  -4.549197e-07 4.008872e-07 0.000000e+00  -1.224897e-06 3.982013e-07 0.000000e+00  -1.982093e-06 3.883389e-07 0.000000e+00  -2.714410e-06 3.718454e-07 0.000000e+00  -3.408179e-06 3.484221e-07 0.000000e+00  -4.046503e-06 3.178505e-07 0.000000e+00  -4.618476e-06 2.809090e-07 0.000000e+00  -5.117471e-06 2.384453e-07 0.000000e+00  -5.528677e-06 1.904761e-07 0.000000e+00  -5.834758e-06 1.370994e-07 0.000000e+00  -6.032042e-06 7.935760e-08 0.000000e+00  -6.121480e-06 1.833182e-08 0.000000e+00  -6.089411e-06 -4.569539e-08 0.000000e+00  -5.920339e-06 -1.123693e-07 0.000000e+00  -5.619518e-06 -1.804835e-07 0.000000e+00  -5.196890e-06 -2.488335e-07 0.000000e+00  -4.641686e-06 -3.169600e-07 0.000000e+00  -3.941901e-06 -3.843488e-07 0.000000e+00  -3.112491e-06 -4.497646e-07 0.000000e+00  -2.172791e-06 -5.120227e-07 0.000000e+00  -1.115853e-06 -5.706059e-07 0.000000e+00  6.606047e-08 -6.249649e-07 0.000000e+00  1.348688e-06 -6.739949e-07 0.000000e+00  2.704095e-06 -7.166932e-07 0.000000e+00  4.135487e-06 -7.526205e-07 0.000000e+00  5.646594e-06 -7.813293e-07 0.000000e+00  7.205528e-06 -8.020113e-07 0.000000e+00  8.777843e-06 -8.140110e-07 0.000000e+00  1.036414e-05 -8.171010e-07 0.000000e+00  1.196547e-05 -8.110657e-07 0.000000e+00  1.354525e-05 -7.955459e-07 0.000000e+00  1.506584e-05 -7.703795e-07 0.000000e+00  1.652735e-05 -7.356614e-07 0.000000e+00  1.793037e-05 -6.915092e-07 0.000000e+00  1.923764e-05 -6.381296e-07 0.000000e+00  2.041263e-05 -5.759580e-07 0.000000e+00  2.145776e-05 -5.054771e-07 0.000000e+00  2.237599e-05 -4.271904e-07 0.000000e+00  2.313412e-05 -3.419309e-07 0.000000e+00  2.370158e-05 -2.507736e-07 0.000000e+00  2.408617e-05 -1.545945e-07 0.000000e+00  2.429627e-05 -5.427279e-08 0.000000e+00  2.430760e-05 4.874295e-08 0.000000e+00  2.410047e-05 1.527699e-07 0.000000e+00  2.369091e-05 2.566026e-07 0.000000e+00  2.309536e-05 3.590654e-07 0.000000e+00  2.230297e-05 4.581829e-07 0.000000e+00  2.130926e-05 5.517782e-07 0.000000e+00  2.014048e-05 6.384519e-07 0.000000e+00  1.882289e-05 7.168771e-07 0.000000e+00  1.736256e-05 7.847253e-07 0.000000e+00  1.577317e-05 8.395320e-07 0.000000e+00  1.409185e-05 8.799121e-07 0.000000e+00  1.235499e-05 9.046037e-07 0.000000e+00  1.058709e-05 9.112178e-07 0.000000e+00  8.820680e-06 8.973808e-07 0.000000e+00  7.102052e-06 8.621091e-07 0.000000e+00  5.475360e-06 8.046744e-07 0.000000e+00  3.980932e-06 7.234807e-07 0.000000e+00  2.664507e-06 6.176955e-07 0.000000e+00  1.571739e-06 4.889213e-07 0.000000e+00  7.397865e-07 3.409447e-07 0.000000e+00  1.970847e-07 1.817779e-07 0.000000e+00  -5.167479e-08 3.179656e-08 0.000000e+00  -6.069390e-08 -6.083328e-08 0.000000e+00  -1.365884e-11 -1.213132e-11 0.000000e+00  6.509507e-13 -2.646126e-12 0.000000e+00  -2.197177e-08 -5.462737e-08 0.000000e+00  -2.462822e-07 2.489020e-07 0.000000e+00  -8.263849e-07 6.975929e-07 0.000000e+00  -1.820052e-06 1.178500e-06 0.000000e+00  -3.229301e-06 1.633525e-06 0.000000e+00  -5.021180e-06 2.033493e-06 0.000000e+00  -7.142987e-06 2.364463e-06 0.000000e+00  -9.531826e-06 2.620725e-06 0.000000e+00  -1.212042e-05 2.801263e-06 0.000000e+00  -1.484079e-05 2.907871e-06 0.000000e+00  -1.762664e-05 2.944095e-06 0.000000e+00  -2.041494e-05 2.914622e-06 0.000000e+00  -2.315457e-05 2.826009e-06 0.000000e+00  -2.576883e-05 2.680840e-06 0.000000e+00  -2.822274e-05 2.487690e-06 0.000000e+00  -3.049541e-05 2.254976e-06 0.000000e+00  -3.253280e-05 1.987040e-06 0.000000e+00  -3.427942e-05 1.688621e-06 0.000000e+00  -3.573246e-05 1.368093e-06 0.000000e+00  -3.690182e-05 1.033211e-06 0.000000e+00  -3.774974e-05 6.882552e-07 0.000000e+00  -3.823822e-05 3.377266e-07 0.000000e+00  -3.839383e-05 -1.142194e-08 0.000000e+00  -3.825304e-05 -3.530823e-07 0.000000e+00  -3.779284e-05 -6.837927e-07 0.000000e+00  -3.699064e-05 -1.000006e-06 0.000000e+00  -3.589578e-05 -1.296843e-06 0.000000e+00  -3.456403e-05 -1.570365e-06 0.000000e+00  -3.298327e-05 -1.818363e-06 0.000000e+00  -3.114198e-05 -2.038620e-06 0.000000e+00  -2.910379e-05 -2.228603e-06 0.000000e+00  -2.693515e-05 -2.386710e-06 0.000000e+00  -2.462975e-05 -2.512128e-06 0.000000e+00  -2.218190e-05 -2.604058e-06 0.000000e+00  -1.966060e-05 -2.662265e-06 0.000000e+00  -1.713417e-05 -2.687360e-06 0.000000e+00  -1.459698e-05 -2.679813e-06 0.000000e+00  -1.204408e-05 -2.640080e-06 0.000000e+00  -9.541499e-06 -2.569921e-06 0.000000e+00  -7.151603e-06 -2.471798e-06 0.000000e+00  -4.865122e-06 -2.347149e-06 0.000000e+00  -2.673683e-06 -2.197333e-06 0.000000e+00  -6.335885e-07 -2.025617e-06 0.000000e+00  1.204913e-06 -1.835785e-06 0.000000e+00  2.857578e-06 -1.629798e-06 0.000000e+00  4.338778e-06 -1.409451e-06 0.000000e+00  5.606633e-06 -1.178924e-06 0.000000e+00  6.626972e-06 -9.427204e-07 0.000000e+00  7.423058e-06 -7.028153e-07 0.000000e+00  8.015966e-06 -4.609409e-07 0.000000e+00  8.380602e-06 -2.215750e-07 0.000000e+00  8.500482e-06 1.067329e-08 0.000000e+00  8.405492e-06 2.342952e-07 0.000000e+00  8.122241e-06 4.480933e-07 0.000000e+00  7.642499e-06 6.478594e-07 0.000000e+00  6.966831e-06 8.294256e-07 0.000000e+00  6.129149e-06 9.921562e-07 0.000000e+00  5.158794e-06 1.135767e-06 0.000000e+00  4.062469e-06 1.256785e-06 0.000000e+00  2.855262e-06 1.351917e-06 0.000000e+00  1.571180e-06 1.421684e-06 0.000000e+00  2.382962e-07 1.466957e-06 0.000000e+00  -1.125211e-06 1.485325e-06 0.000000e+00  -2.493661e-06 1.474655e-06 0.000000e+00  -3.837652e-06 1.436745e-06 0.000000e+00  -5.135011e-06 1.373709e-06 0.000000e+00  -6.360478e-06 1.284353e-06 0.000000e+00  -7.482479e-06 1.167820e-06 0.000000e+00  -8.481073e-06 1.027139e-06 0.000000e+00  -9.344589e-06 8.655719e-07 0.000000e+00  -1.004536e-05 6.831266e-07 0.000000e+00  -1.055071e-05 4.801581e-07 0.000000e+00  -1.085450e-05 2.607048e-07 0.000000e+00  -1.095945e-05 2.891034e-08 0.000000e+00  -1.083977e-05 -2.142053e-07 0.000000e+00  -1.046594e-05 -4.673029e-07 0.000000e+00  -9.848733e-06 -7.257221e-07 0.000000e+00  -9.007866e-06 -9.848602e-07 0.000000e+00  -7.922644e-06 -1.243025e-06 0.000000e+00  -6.569820e-06 -1.498266e-06 0.000000e+00  -4.978439e-06 -1.745821e-06 0.000000e+00  -3.185912e-06 -1.981178e-06 0.000000e+00  -1.178378e-06 -2.202426e-06 0.000000e+00  1.059713e-06 -2.407479e-06 0.000000e+00  3.481831e-06 -2.592087e-06 0.000000e+00  6.034454e-06 -2.752446e-06 0.000000e+00  8.724756e-06 -2.886946e-06 0.000000e+00  1.156106e-05 -2.993890e-06 0.000000e+00  1.448258e-05 -3.070171e-06 0.000000e+00  1.742367e-05 -3.113328e-06 0.000000e+00  2.038693e-05 -3.122558e-06 0.000000e+00  2.337592e-05 -3.097047e-06 0.000000e+00  2.632113e-05 -3.035418e-06 0.000000e+00  2.915108e-05 -2.937106e-06 0.000000e+00  3.186772e-05 -2.802530e-06 0.000000e+00  3.447392e-05 -2.632144e-06 0.000000e+00  3.689907e-05 -2.426745e-06 0.000000e+00  3.907390e-05 -2.188052e-06 0.000000e+00  4.100486e-05 -1.917954e-06 0.000000e+00  4.269940e-05 -1.618368e-06 0.000000e+00  4.409461e-05 -1.292488e-06 0.000000e+00  4.513255e-05 -9.444707e-07 0.000000e+00  4.582982e-05 -5.776816e-07 0.000000e+00  4.620395e-05 -1.954579e-07 0.000000e+00  4.620884e-05 1.966616e-07 0.000000e+00  4.580702e-05 5.922237e-07 0.000000e+00  4.503030e-05 9.866457e-07 0.000000e+00  4.391113e-05 1.375487e-06 0.000000e+00  4.242846e-05 1.751228e-06 0.000000e+00  4.057312e-05 2.105589e-06 0.000000e+00  3.839566e-05 2.433322e-06 0.000000e+00  3.594636e-05 2.729476e-06 0.000000e+00  3.323530e-05 2.985274e-06 0.000000e+00  3.028669e-05 3.191488e-06 0.000000e+00  2.717037e-05 3.343099e-06 0.000000e+00  2.395424e-05 3.435590e-06 0.000000e+00  2.068143e-05 3.460236e-06 0.000000e+00  1.740934e-05 3.408583e-06 0.000000e+00  1.422220e-05 3.277661e-06 0.000000e+00  1.119910e-05 3.065637e-06 0.000000e+00  8.408225e-06 2.767765e-06 0.000000e+00  5.925682e-06 2.382758e-06 0.000000e+00  3.827375e-06 1.918902e-06 0.000000e+00  2.171234e-06 1.392545e-06 0.000000e+00  9.962530e-07 8.339062e-07 0.000000e+00  3.062917e-07 3.090541e-07 0.000000e+00  3.128343e-08 -5.145751e-08 0.000000e+00  -1.345291e-11 -1.605660e-11 0.000000e+00  4.180908e-12 -3.972294e-12 0.000000e+00  -1.492079e-07 1.469826e-07 0.000000e+00  -6.930783e-07 8.287433e-07 0.000000e+00  -1.738660e-06 1.741869e-06 0.000000e+00  -3.326383e-06 2.708984e-06 0.000000e+00  -5.449323e-06 3.627883e-06 0.000000e+00  -8.064760e-06 4.441399e-06 0.000000e+00  -1.110695e-05 5.119113e-06 0.000000e+00  -1.449631e-05 5.646702e-06 0.000000e+00  -1.814623e-05 6.019777e-06 0.000000e+00  -2.196778e-05 6.240251e-06 0.000000e+00  -2.587310e-05 6.314168e-06 0.000000e+00  -2.977773e-05 6.250346e-06 0.000000e+00  -3.361382e-05 6.061896e-06 0.000000e+00  -3.727356e-05 5.753584e-06 0.000000e+00  -4.071109e-05 5.343242e-06 0.000000e+00  -4.389983e-05 4.848529e-06 0.000000e+00  -4.676307e-05 4.278378e-06 0.000000e+00  -4.922155e-05 3.642650e-06 0.000000e+00  -5.127312e-05 2.959161e-06 0.000000e+00  -5.293329e-05 2.244449e-06 0.000000e+00  -5.414710e-05 1.507546e-06 0.000000e+00  -5.485896e-05 7.579961e-07 0.000000e+00  -5.510742e-05 1.072887e-08 0.000000e+00  -5.494500e-05 -7.211340e-07 0.000000e+00  -5.433694e-05 -1.430213e-06 0.000000e+00  -5.324887e-05 -2.108910e-06 0.000000e+00  -5.175129e-05 -2.746689e-06 0.000000e+00  -4.992381e-05 -3.335045e-06 0.000000e+00  -4.774675e-05 -3.869229e-06 0.000000e+00  -4.520126e-05 -4.344443e-06 0.000000e+00  -4.237803e-05 -4.755175e-06 0.000000e+00  -3.937176e-05 -5.097941e-06 0.000000e+00  -3.617098e-05 -5.370952e-06 0.000000e+00  -3.276518e-05 -5.572422e-06 0.000000e+00  -2.925275e-05 -5.701791e-06 0.000000e+00  -2.573116e-05 -5.760344e-06 0.000000e+00  -2.219008e-05 -5.749029e-06 0.000000e+00  -1.862029e-05 -5.668738e-06 0.000000e+00  -1.511617e-05 -5.523222e-06 0.000000e+00  -1.176691e-05 -5.317770e-06 0.000000e+00  -8.557350e-06 -5.055397e-06 0.000000e+00  -5.473804e-06 -4.738928e-06 0.000000e+00  -2.597077e-06 -4.375384e-06 0.000000e+00  6.712408e-10 -3.972929e-06 0.000000e+00  2.343364e-06 -3.535687e-06 0.000000e+00  4.452719e-06 -3.067421e-06 0.000000e+00  6.268207e-06 -2.577145e-06 0.000000e+00  7.740343e-06 -2.074591e-06 0.000000e+00  8.903223e-06 -1.563917e-06 0.000000e+00  9.787555e-06 -1.048742e-06 0.000000e+00  1.035651e-05 -5.387475e-07 0.000000e+00  1.058562e-05 -4.391827e-08 0.000000e+00  1.051789e-05 4.325992e-07 0.000000e+00  1.019136e-05 8.883379e-07 0.000000e+00  9.593108e-06 1.314174e-06 0.000000e+00  8.722859e-06 1.701058e-06 0.000000e+00  7.628864e-06 2.047726e-06 0.000000e+00  6.352571e-06 2.353676e-06 0.000000e+00  4.902290e-06 2.611352e-06 0.000000e+00  3.298464e-06 2.813580e-06 0.000000e+00  1.589060e-06 2.961584e-06 0.000000e+00  -1.866874e-07 3.057349e-06 0.000000e+00  -2.004025e-06 3.095594e-06 0.000000e+00  -3.827280e-06 3.071636e-06 0.000000e+00  -5.615375e-06 2.989451e-06 0.000000e+00  -7.337776e-06 2.853692e-06 0.000000e+00  -8.959420e-06 2.661691e-06 0.000000e+00  -1.043599e-05 2.411509e-06 0.000000e+00  -1.174008e-05 2.109769e-06 0.000000e+00  -1.285631e-05 1.763582e-06 0.000000e+00  -1.374582e-05 1.372865e-06 0.000000e+00  -1.436239e-05 9.382870e-07 0.000000e+00  -1.469834e-05 4.686302e-07 0.000000e+00  -1.475885e-05 -2.710881e-08 0.000000e+00  -1.450728e-05 -5.468406e-07 0.000000e+00  -1.390144e-05 -1.087777e-06 0.000000e+00  -1.295771e-05 -1.639815e-06 0.000000e+00  -1.170539e-05 -2.192991e-06 0.000000e+00  -1.011460e-05 -2.743773e-06 0.000000e+00  -8.151536e-06 -3.288057e-06 0.000000e+00  -5.858489e-06 -3.815545e-06 0.000000e+00  -3.289752e-06 -4.316495e-06 0.000000e+00  -4.246092e-07 -4.786906e-06 0.000000e+00  2.760319e-06 -5.222383e-06 0.000000e+00  6.198055e-06 -5.613753e-06 0.000000e+00  9.811626e-06 -5.952835e-06 0.000000e+00  1.361278e-05 -6.236271e-06 0.000000e+00  1.761514e-05 -6.460496e-06 0.000000e+00  2.173165e-05 -6.618830e-06 0.000000e+00  2.586838e-05 -6.706011e-06 0.000000e+00  3.003107e-05 -6.720407e-06 0.000000e+00  3.422693e-05 -6.660343e-06 0.000000e+00  3.835679e-05 -6.522886e-06 0.000000e+00  4.231863e-05 -6.306875e-06 0.000000e+00  4.611760e-05 -6.013295e-06 0.000000e+00  4.976024e-05 -5.643176e-06 0.000000e+00  5.314590e-05 -5.198277e-06 0.00000