<?xml version="1.0"?>
<VTKFile type="UnstructuredGrid"  version="0.1"  >
<UnstructuredGrid>
<Piece  NumberOfPoints="16641" NumberOfCells="32768">
<Points>
<DataArray  type="Float32"  NumberOfComponents="3"  format="ascii">0 0 0  0.0078125 0 0  0.015625 0 0  0.0234375 0 0  0.03125 0 0  0.0390625 0 0  0.046875 0 0  0.0546875 0 0  0.0625 0 0  0.0703125 0 0  0.078125 0 0  0.0859375 0 0  0.09375 0 0  0.101562 0 0  0.109375 0 0  0.117188 0 0  0.125 0 0  0.132812 0 0  0.140625 0 0  0.148438 0 0  0.15625 0 0  0.164062 0 0  0.171875 0 0  0.179688 0 0  0.1875 0 0  0.195312 0 0  0.203125 0 0  0.210938 0 0  0.21875 0 0  0.226562 0 0  0.234375 0 0  0.242188 0 0  0.25 0 0  0.257812 0 0  0.265625 0 0  0.273438 0 0  0.28125 0 0  0.289062 0 0  0.296875 0 0  0.304688 0 0  0.3125 0 0  0.320312 0 0  0.328125 0 0  0.335938 0 0  0.34375 0 0  0.351562 0 0  0.359375 0 0  0.367188 0 0  0.375 0 0  0.382812 0 0  0.390625 0 0  0.398438 0 0  0.40625 0 0  0.414062 0 0  0.421875 0 0  0.429688 0 0  0.4375 0 0  0.445312 0 0  0.453125 0 0  0.460938 0 0  0.46875 0 0  0.476562 0 0  0.484375 0 0  0.492188 0 0  0.5 0 0  0.507812 0 0  0.515625 0 0  0.523438 0 0  0.53125 0 0  0.539062 0 0  0.546875 0 0  0.554688 0 0  0.5625 0 0  0.570312 0 0  0.578125 0 0  0.585938 0 0  0.59375 0 0  0.601562 0 0  0.609375 0 0  0.617188 0 0  0.625 0 0  0.632812 0 0  0.640625 0 0  0.648438 0 0  0.65625 0 0  0.664062 0 0  0.671875 0 0  0.679688 0 0  0.6875 0 0  0.695312 0 0  0.703125 0 0  0.710938 0 0  0.71875 0 0  0.726562 0 0  0.734375 0 0  0.742188 0 0  0.75 0 0  0.757812 0 0  0.765625 0 0  0.773438 0 0  0.78125 0 0  0.789062 0 0  0.796875 0 0  0.804688 0 0  0.8125 0 0  0.820312 0 0  0.828125 0 0  0.835938 0 0  0.84375 0 0  0.851562 0 0  0.859375 0 0  0.867188 0 0  0.875 0 0  0.882812 0 0  0.890625 0 0  0.898438 0 0  0.90625 0 0  0.914062 0 0  0.921875 0 0  0.929688 0 0  0.9375 0 0  0.945312 0 0  0.953125 0 0  0.960938 0 0  0.96875 0 0  0.976562 0 0  0.984375 0 0  0.992188 0 0  1 0 0  0 0.0078125 0  0.0078125 0.0078125 0  0.015625 0.0078125 0  0.0234375 0.0078125 0  0.03125 0.0078125 0  0.0390625 0.0078125 0  0.046875 0.0078125 0  0.0546875 0.0078125 0  0.0625 0.0078125 0  0.0703125 0.0078125 0  0.078125 0.0078125 0  0.0859375 0.0078125 0  0.09375 0.0078125 0  0.101562 0.0078125 0  0.109375 0.0078125 0  0.117188 0.0078125 0  0.125 0.0078125 0  0.132812 0.0078125 0  0.140625 0.0078125 0  0.148438 0.0078125 0  0.15625 0.0078125 0  0.164062 0.0078125 0  0.171875 0.0078125 0  0.179688 0.0078125 0  0.1875 0.0078125 0  0.195312 0.0078125 0  0.203125 0.0078125 0  0.210938 0.0078125 0  0.21875 0.0078125 0  0.226562 0.0078125 0  0.234375 0.0078125 0  0.242188 0.0078125 0  0.25 0.0078125 0  0.257812 0.0078125 0  0.265625 0.0078125 0  0.273438 0.0078125 0  0.28125 0.0078125 0  0.289062 0.0078125 0  0.296875 0.0078125 0  0.304688 0.0078125 0  0.3125 0.0078125 0  0.320312 0.0078125 0  0.328125 0.0078125 0  0.335938 0.0078125 0  0.34375 0.0078125 0  0.351562 0.0078125 0  0.359375 0.0078125 0  0.367188 0.0078125 0  0.375 0.0078125 0  0.382812 0.0078125 0  0.390625 0.0078125 0  0.398438 0.0078125 0  0.40625 0.0078125 0  0.414062 0.0078125 0  0.421875 0.0078125 0  0.429688 0.0078125 0  0.4375 0.0078125 0  0.445312 0.0078125 0  0.453125 0.0078125 0  0.460938 0.0078125 0  0.46875 0.0078125 0  0.476562 0.0078125 0  0.484375 0.0078125 0  0.492188 0.0078125 0  0.5 0.0078125 0  0.507812 0.0078125 0  0.515625 0.0078125 0  0.523438 0.0078125 0  0.53125 0.0078125 0  0.539062 0.0078125 0  0.546875 0.0078125 0  0.554688 0.0078125 0  0.5625 0.0078125 0  0.570312 0.0078125 0  0.578125 0.0078125 0  0.585938 0.0078125 0  0.59375 0.0078125 0  0.601562 0.0078125 0  0.609375 0.0078125 0  0.617188 0.0078125 0  0.625 0.0078125 0  0.632812 0.0078125 0  0.640625 0.0078125 0  0.648438 0.0078125 0  0.65625 0.0078125 0  0.664062 0.0078125 0  0.671875 0.0078125 0  0.679688 0.0078125 0  0.6875 0.0078125 0  0.695312 0.0078125 0  0.703125 0.0078125 0  0.710938 0.0078125 0  0.71875 0.0078125 0  0.726562 0.0078125 0  0.734375 0.0078125 0  0.742188 0.0078125 0  0.75 0.0078125 0  0.757812 0.0078125 0  0.765625 0.0078125 0  0.773438 0.0078125 0  0.78125 0.0078125 0  0.789062 0.0078125 0  0.796875 0.0078125 0  0.804688 0.0078125 0  0.8125 0.0078125 0  0.820312 0.0078125 0  0.828125 0.0078125 0  0.835938 0.0078125 0  0.84375 0.0078125 0  0.851562 0.0078125 0  0.859375 0.0078125 0  0.867188 0.0078125 0  0.875 0.0078125 0  0.882812 0.0078125 0  0.890625 0.0078125 0  0.898438 0.0078125 0  0.90625 0.0078125 0  0.914062 0.0078125 0  0.921875 0.0078125 0  0.929688 0.0078125 0  0.9375 0.0078125 0  0.945312 0.0078125 0  0.953125 0.0078125 0  0.960938 0.0078125 0  0.96875 0.0078125 0  0.976562 0.0078125 0  0.984375 0.0078125 0  0.992188 0.0078125 0  1 0.0078125 0  0 0.015625 0  0.0078125 0.015625 0  0.015625 0.015625 0  0.0234375 0.015625 0  0.03125 0.015625 0  0.0390625 0.015625 0  0.046875 0.015625 0  0.0546875 0.015625 0  0.0625 0.015625 0  0.0703125 0.015625 0  0.078125 0.015625 0  0.0859375 0.015625 0  0.09375 0.015625 0  0.101562 0.015625 0  0.109375 0.015625 0  0.117188 0.015625 0  0.125 0.015625 0  0.132812 0.015625 0  0.140625 0.015625 0  0.148438 0.015625 0  0.15625 0.015625 0  0.164062 0.015625 0  0.171875 0.015625 0  0.179688 0.015625 0  0.1875 0.015625 0  0.195312 0.015625 0  0.203125 0.015625 0  0.210938 0.015625 0  0.21875 0.015625 0  0.226562 0.015625 0  0.234375 0.015625 0  0.242188 0.015625 0  0.25 0.015625 0  0.257812 0.015625 0  0.265625 0.015625 0  0.273438 0.015625 0  0.28125 0.015625 0  0.289062 0.015625 0  0.296875 0.015625 0  0.304688 0.015625 0  0.3125 0.015625 0  0.320312 0.015625 0  0.328125 0.015625 0  0.335938 0.015625 0  0.34375 0.015625 0  0.351562 0.015625 0  0.359375 0.015625 0  0.367188 0.015625 0  0.375 0.015625 0  0.382812 0.015625 0  0.390625 0.015625 0  0.398438 0.015625 0  0.40625 0.015625 0  0.414062 0.015625 0  0.421875 0.015625 0  0.429688 0.015625 0  0.4375 0.015625 0  0.445312 0.015625 0  0.453125 0.015625 0  0.460938 0.015625 0  0.46875 0.015625 0  0.476562 0.015625 0  0.484375 0.015625 0  0.492188 0.015625 0  0.5 0.015625 0  0.507812 0.015625 0  0.515625 0.015625 0  0.523438 0.015625 0  0.53125 0.015625 0  0.539062 0.015625 0  0.546875 0.015625 0  0.554688 0.015625 0  0.5625 0.015625 0  0.570312 0.015625 0  0.578125 0.015625 0  0.585938 0.015625 0  0.59375 0.015625 0  0.601562 0.015625 0  0.609375 0.015625 0  0.617188 0.015625 0  0.625 0.015625 0  0.632812 0.015625 0  0.640625 0.015625 0  0.648438 0.015625 0  0.65625 0.015625 0  0.664062 0.015625 0  0.671875 0.015625 0  0.679688 0.015625 0  0.6875 0.015625 0  0.695312 0.015625 0  0.703125 0.015625 0  0.710938 0.015625 0  0.71875 0.015625 0  0.726562 0.015625 0  0.734375 0.015625 0  0.742188 0.015625 0  0.75 0.015625 0  0.757812 0.015625 0  0.765625 0.015625 0  0.773438 0.015625 0  0.78125 0.015625 0  0.789062 0.015625 0  0.796875 0.015625 0  0.804688 0.015625 0  0.8125 0.015625 0  0.820312 0.015625 0  0.828125 0.015625 0  0.835938 0.015625 0  0.84375 0.015625 0  0.851562 0.015625 0  0.859375 0.015625 0  0.867188 0.015625 0  0.875 0.015625 0  0.882812 0.015625 0  0.890625 0.015625 0  0.898438 0.015625 0  0.90625 0.015625 0  0.914062 0.015625 0  0.921875 0.015625 0  0.929688 0.015625 0  0.9375 0.015625 0  0.945312 0.015625 0  0.953125 0.015625 0  0.960938 0.015625 0  0.96875 0.015625 0  0.976562 0.015625 0  0.984375 0.015625 0  0.992188 0.015625 0  1 0.015625 0  0 0.0234375 0  0.0078125 0.0234375 0  0.015625 0.0234375 0  0.0234375 0.0234375 0  0.03125 0.0234375 0  0.0390625 0.0234375 0  0.046875 0.0234375 0  0.0546875 0.0234375 0  0.0625 0.0234375 0  0.0703125 0.0234375 0  0.078125 0.0234375 0  0.0859375 0.0234375 0  0.09375 0.0234375 0  0.101562 0.0234375 0  0.109375 0.0234375 0  0.117188 0.0234375 0  0.125 0.0234375 0  0.132812 0.0234375 0  0.140625 0.0234375 0  0.148438 0.0234375 0  0.15625 0.0234375 0  0.164062 0.0234375 0  0.171875 0.0234375 0  0.179688 0.0234375 0  0.1875 0.0234375 0  0.195312 0.0234375 0  0.203125 0.0234375 0  0.210938 0.0234375 0  0.21875 0.0234375 0  0.226562 0.0234375 0  0.234375 0.0234375 0  0.242188 0.0234375 0  0.25 0.0234375 0  0.257812 0.0234375 0  0.265625 0.0234375 0  0.273438 0.0234375 0  0.28125 0.0234375 0  0.289062 0.0234375 0  0.296875 0.0234375 0  0.304688 0.0234375 0  0.3125 0.0234375 0  0.320312 0.0234375 0  0.328125 0.0234375 0  0.335938 0.0234375 0  0.34375 0.0234375 0  0.351562 0.0234375 0  0.359375 0.0234375 0  0.367188 0.0234375 0  0.375 0.0234375 0  0.382812 0.0234375 0  0.390625 0.0234375 0  0.398438 0.0234375 0  0.40625 0.0234375 0  0.414062 0.0234375 0  0.421875 0.0234375 0  0.429688 0.0234375 0  0.4375 0.0234375 0  0.445312 0.0234375 0  0.453125 0.0234375 0  0.460938 0.0234375 0  0.46875 0.0234375 0  0.476562 0.0234375 0  0.484375 0.0234375 0  0.492188 0.0234375 0  0.5 0.0234375 0  0.507812 0.0234375 0  0.515625 0.0234375 0  0.523438 0.0234375 0  0.53125 0.0234375 0  0.539062 0.0234375 0  0.546875 0.0234375 0  0.554688 0.0234375 0  0.5625 0.0234375 0  0.570312 0.0234375 0  0.578125 0.0234375 0  0.585938 0.0234375 0  0.59375 0.0234375 0  0.601562 0.0234375 0  0.609375 0.0234375 0  0.617188 0.0234375 0  0.625 0.0234375 0  0.632812 0.0234375 0  0.640625 0.0234375 0  0.648438 0.0234375 0  0.65625 0.0234375 0  0.664062 0.0234375 0  0.671875 0.0234375 0  0.679688 0.0234375 0  0.6875 0.0234375 0  0.695312 0.0234375 0  0.703125 0.0234375 0  0.710938 0.0234375 0  0.71875 0.0234375 0  0.726562 0.0234375 0  0.734375 0.0234375 0  0.742188 0.0234375 0  0.75 0.0234375 0  0.757812 0.0234375 0  0.765625 0.0234375 0  0.773438 0.0234375 0  0.78125 0.0234375 0  0.789062 0.0234375 0  0.796875 0.0234375 0  0.804688 0.0234375 0  0.8125 0.0234375 0  0.820312 0.0234375 0  0.828125 0.0234375 0  0.835938 0.0234375 0  0.84375 0.0234375 0  0.851562 0.0234375 0  0.859375 0.0234375 0  0.867188 0.0234375 0  0.875 0.0234375 0  0.882812 0.0234375 0  0.890625 0.0234375 0  0.898438 0.0234375 0  0.90625 0.0234375 0  0.914062 0.0234375 0  0.921875 0.0234375 0  0.929688 0.0234375 0  0.9375 0.0234375 0  0.945312 0.0234
[...]
<PointData  Vectors="u"> 
<DataArray  type="Float32"  Name="u"  NumberOfComponents="3" format="ascii">2.972140e-12 1.167713e-12 0.000000e+00  -1.218854e-12 1.662803e-12 0.000000e+00  2.747431e-12 -6.000247e-12 0.000000e+00  5.320004e-12 -1.365572e-11 0.000000e+00  2.144267e-11 -2.578108e-11 0.000000e+00  5.233253e-11 -3.925618e-11 0.000000e+00  9.951736e-11 -5.252912e-11 0.000000e+00  1.621583e-10 -6.455830e-11 0.000000e+00  2.383743e-10 -7.470816e-11 0.000000e+00  3.257792e-10 -8.267421e-11 0.000000e+00  4.217707e-10 -8.835188e-11 0.000000e+00  5.236797e-10 -9.175237e-11 0.000000e+00  6.290164e-10 -9.296826e-11 0.000000e+00  7.350668e-10 -9.210588e-11 0.000000e+00  8.397235e-10 -8.935044e-11 0.000000e+00  9.408031e-10 -8.487320e-11 0.000000e+00  1.036277e-09 -7.885821e-11 0.000000e+00  1.124581e-09 -7.151731e-11 0.000000e+00  1.204370e-09 -6.306026e-11 0.000000e+00  1.274245e-09 -5.368095e-11 0.000000e+00  1.333087e-09 -4.357917e-11 0.000000e+00  1.380342e-09 -3.296279e-11 0.000000e+00  1.415589e-09 -2.202241e-11 0.000000e+00  1.438260e-09 -1.093378e-11 0.000000e+00  1.448132e-09 1.240482e-13 0.000000e+00  1.445546e-09 1.098263e-11 0.000000e+00  1.430845e-09 2.150032e-11 0.000000e+00  1.404171e-09 3.154260e-11 0.000000e+00  1.366050e-09 4.097283e-11 0.000000e+00  1.317493e-09 4.968049e-11 0.000000e+00  1.259354e-09 5.758627e-11 0.000000e+00  1.192278e-09 6.460887e-11 0.000000e+00  1.117319e-09 7.066569e-11 0.000000e+00  1.035870e-09 7.571039e-11 0.000000e+00  9.490119e-10 7.972706e-11 0.000000e+00  8.576479e-10 8.269006e-11 0.000000e+00  7.631034e-10 8.457383e-11 0.000000e+00  6.668611e-10 8.539227e-11 0.000000e+00  5.699581e-10 8.518418e-11 0.000000e+00  4.733172e-10 8.397433e-11 0.000000e+00  3.782783e-10 8.178945e-11 0.000000e+00  2.861542e-10 7.869200e-11 0.000000e+00  1.977231e-10 7.476030e-11 0.000000e+00  1.137249e-10 7.005816e-11 0.000000e+00  3.528934e-11 6.465391e-11 0.000000e+00  -3.663492e-11 5.864189e-11 0.000000e+00  -1.016658e-10 5.212123e-11 0.000000e+00  -1.593919e-10 4.517972e-11 0.000000e+00  -2.090605e-10 3.791234e-11 0.000000e+00  -2.501994e-10 3.042653e-11 0.000000e+00  -2.828738e-10 2.282295e-11 0.000000e+00  -3.070743e-10 1.519675e-11 0.000000e+00  -3.225202e-10 7.652589e-12 0.000000e+00  -3.292412e-10 2.924947e-13 0.000000e+00  -3.277174e-10 -6.798525e-12 0.000000e+00  -3.183413e-10 -1.353416e-11 0.000000e+00  -3.013196e-10 -1.981712e-11 0.000000e+00  -2.771295e-10 -2.556672e-11 0.000000e+00  -2.465637e-10 -3.072691e-11 0.000000e+00  -2.103476e-10 -3.523412e-11 0.000000e+00  -1.691148e-10 -3.901365e-11 0.000000e+00  -1.236703e-10 -4.201788e-11 0.000000e+00  -7.496818e-11 -4.422792e-11 0.000000e+00  -2.394167e-11 -4.561316e-11 0.000000e+00  2.847361e-11 -4.613308e-11 0.000000e+00  8.130902e-11 -4.577968e-11 0.000000e+00  1.336240e-10 -4.457362e-11 0.000000e+00  1.844398e-10 -4.252269e-11 0.000000e+00  2.326896e-10 -3.962737e-11 0.000000e+00  2.774241e-10 -3.591988e-11 0.000000e+00  3.178896e-10 -3.145717e-11 0.000000e+00  3.532377e-10 -2.628550e-11 0.000000e+00  3.824638e-10 -2.044721e-11 0.000000e+00  4.048127e-10 -1.400965e-11 0.000000e+00  4.198641e-10 -7.057559e-12 0.000000e+00  4.270659e-10 3.298574e-13 0.000000e+00  4.256620e-10 8.073696e-12 0.000000e+00  4.152337e-10 1.608194e-11 0.000000e+00  3.957925e-10 2.425474e-11 0.000000e+00  3.672125e-10 3.249073e-11 0.000000e+00  3.291386e-10 4.068575e-11 0.000000e+00  2.815754e-10 4.873775e-11 0.000000e+00  2.250005e-10 5.654737e-11 0.000000e+00  1.597867e-10 6.400611e-11 0.000000e+00  8.607051e-11 7.100099e-11 0.000000e+00  4.295701e-12 7.743731e-11 0.000000e+00  -8.463292e-11 8.323284e-11 0.000000e+00  -1.798467e-10 8.828988e-11 0.000000e+00  -2.807084e-10 9.250650e-11 0.000000e+00  -3.863995e-10 9.581330e-11 0.000000e+00  -4.957009e-10 9.816116e-11 0.000000e+00  -6.073352e-10 9.948188e-11 0.000000e+00  -7.202496e-10 9.970540e-11 0.000000e+00  -8.333935e-10 9.880404e-11 0.000000e+00  -9.454129e-10 9.677487e-11 0.000000e+00  -1.054793e-09 9.359623e-11 0.000000e+00  -1.160243e-09 8.924875e-11 0.000000e+00  -1.260690e-09 8.375882e-11 0.000000e+00  -1.354875e-09 7.717799e-11 0.000000e+00  -1.441286e-09 6.954378e-11 0.000000e+00  -1.518653e-09 6.090103e-11 0.000000e+00  -1.586134e-09 5.133614e-11 0.000000e+00  -1.642818e-09 4.095699e-11 0.000000e+00  -1.687485e-09 2.986579e-11 0.000000e+00  -1.719188e-09 1.817674e-11 0.000000e+00  -1.737583e-09 6.033829e-12 0.000000e+00  -1.742353e-09 -6.404515e-12 0.000000e+00  -1.732871e-09 -1.897510e-11 0.000000e+00  -1.708821e-09 -3.150047e-11 0.000000e+00  -1.670590e-09 -4.379105e-11 0.000000e+00  -1.618665e-09 -5.565187e-11 0.000000e+00  -1.553273e-09 -6.687362e-11 0.000000e+00  -1.474987e-09 -7.723501e-11 0.000000e+00  -1.385088e-09 -8.652372e-11 0.000000e+00  -1.285000e-09 -9.453170e-11 0.000000e+00  -1.175971e-09 -1.010324e-10 0.000000e+00  -1.059610e-09 -1.057977e-10 0.000000e+00  -9.381322e-10 -1.086317e-10 0.000000e+00  -8.138987e-10 -1.093554e-10 0.000000e+00  -6.891964e-10 -1.077830e-10 0.000000e+00  -5.665965e-10 -1.037584e-10 0.000000e+00  -4.490731e-10 -9.719687e-11 0.000000e+00  -3.396807e-10 -8.808796e-11 0.000000e+00  -2.413858e-10 -7.647733e-11 0.000000e+00  -1.571967e-10 -6.251793e-11 0.000000e+00  -9.025428e-11 -4.682586e-11 0.000000e+00  -4.320179e-11 -3.042915e-11 0.000000e+00  -1.795378e-11 -1.802055e-11 0.000000e+00  -1.334883e-11 -1.795920e-11 0.000000e+00  -4.699389e-12 1.965585e-12 0.000000e+00  5.563913e-08 -5.544799e-08 0.000000e+00  5.354140e-08 2.375609e-08 0.000000e+00  -1.518526e-07 1.525991e-07 0.000000e+00  -6.080457e-07 2.895052e-07 0.000000e+00  -1.314052e-06 4.172638e-07 0.000000e+00  -2.246602e-06 5.281513e-07 0.000000e+00  -3.371531e-06 6.189562e-07 0.000000e+00  -4.650191e-06 6.886622e-07 0.000000e+00  -6.042673e-06 7.373959e-07 0.000000e+00  -7.509628e-06 7.659307e-07 0.000000e+00  -9.013348e-06 7.754276e-07 0.000000e+00  -1.051846e-05 7.672840e-07 0.000000e+00  -1.199613e-05 7.433616e-07 0.000000e+00  -1.340531e-05 7.044313e-07 0.000000e+00  -1.472617e-05 6.528156e-07 0.000000e+00  -1.594659e-05 5.907856e-07 0.000000e+00  -1.703804e-05 5.195329e-07 0.000000e+00  -1.797141e-05 4.403350e-07 0.000000e+00  -1.874468e-05 3.554070e-07 0.000000e+00  -1.936264e-05 2.668063e-07 0.000000e+00  -1.980593e-05 1.756824e-07 0.000000e+00  -2.005519e-05 8.322347e-08 0.000000e+00  -2.012430e-05 -8.750380e-09 0.000000e+00  -2.003241e-05 -9.863012e-08 0.000000e+00  -1.976826e-05 -1.854968e-07 0.000000e+00  -1.932086e-05 -2.684266e-07 0.000000e+00  -1.871628e-05 -3.461550e-07 0.000000e+00  -1.798399e-05 -4.176505e-07 0.000000e+00  -1.711859e-05 -4.823334e-07 0.000000e+00  -1.611502e-05 -5.396379e-07 0.000000e+00  -1.500691e-05 -5.889188e-07 0.000000e+00  -1.382934e-05 -6.297613e-07 0.000000e+00  -1.257996e-05 -6.619579e-07 0.000000e+00  -1.125675e-05 -6.853185e-07 0.000000e+00  -9.896065e-06 -6.997986e-07 0.000000e+00  -8.533904e-06 -7.055624e-07 0.000000e+00  -7.168169e-06 -7.027406e-07 0.000000e+00  -5.797070e-06 -6.914715e-07 0.000000e+00  -4.455289e-06 -6.722278e-07 0.000000e+00  -3.175560e-06 -6.456542e-07 0.000000e+00  -1.953708e-06 -6.121349e-07 0.000000e+00  -7.859503e-07 -5.720420e-07 0.000000e+00  2.982885e-07 -5.262359e-07 0.000000e+00  1.272769e-06 -4.757034e-07 0.000000e+00  2.145277e-06 -4.209645e-07 0.000000e+00  2.922961e-06 -3.625030e-07 0.000000e+00  3.584107e-06 -3.014123e-07 0.000000e+00  4.111040e-06 -2.388637e-07 0.000000e+00  4.515701e-06 -1.753819e-07 0.000000e+00  4.808976e-06 -1.114318e-07 0.000000e+00  4.978079e-06 -4.818001e-08 0.000000e+00  5.014718e-06 1.317578e-08 0.000000e+00  4.934517e-06 7.223187e-08 0.000000e+00  4.751479e-06 1.286647e-07 0.000000e+00  4.461747e-06 1.813815e-07 0.000000e+00  4.066044e-06 2.293003e-07 0.000000e+00  3.582291e-06 2.722443e-07 0.000000e+00  3.026111e-06 3.101297e-07 0.000000e+00  2.401523e-06 3.420587e-07 0.000000e+00  1.716888e-06 3.671780e-07 0.000000e+00  9.903335e-07 3.856111e-07 0.000000e+00  2.369606e-07 3.975779e-07 0.000000e+00  -5.332044e-07 4.024601e-07 0.000000e+00  -1.306270e-06 3.997069e-07 0.000000e+00  -2.066421e-06 3.897755e-07 0.000000e+00  -2.801555e-06 3.732116e-07 0.000000e+00  -3.498002e-06 3.497168e-07 0.000000e+00  -4.138861e-06 3.190732e-07 0.000000e+00  -4.713225e-06 2.820591e-07 0.000000e+00  -5.214468e-06 2.395225e-07 0.000000e+00  -5.627775e-06 1.914801e-07 0.000000e+00  -5.935812e-06 1.380300e-07 0.000000e+00  -6.134903e-06 8.021438e-08 0.000000e+00  -6.226001e-06 1.911395e-08 0.000000e+00  -6.195440e-06 -4.498917e-08 0.000000e+00  -6.027721e-06 -1.117409e-07 0.000000e+00  -5.728093e-06 -1.799358e-07 0.000000e+00  -5.306492e-06 -2.483703e-07 0.000000e+00  -4.752138e-06 -3.165863e-07 0.000000e+00  -4.053017e-06 -3.840708e-07 0.000000e+00  -3.224069e-06 -4.495900e-07 0.000000e+00  -2.284615e-06 -5.119607e-07 0.000000e+00  -1.227686e-06 -5.706668e-07 0.000000e+00  -4.552208e-08 -6.251604e-07 0.000000e+00  1.237638e-06 -6.743376e-07 0.000000e+00  2.593884e-06 -7.171965e-07 0.000000e+00  4.026449e-06 -7.532979e-07 0.000000e+00  5.539089e-06 -7.821942e-07 0.000000e+00  7.099939e-06 -8.030760e-07 0.000000e+00  8.674577e-06 -8.152865e-07 0.000000e+00  1.026363e-05 -8.185957e-07 0.000000e+00  1.186814e-05 -8.127851e-07 0.000000e+00  1.345155e-05 -7.974916e-07 0.000000e+00  1.497621e-05 -7.725491e-07 0.000000e+00  1.644223e-05 -7.380473e-07 0.000000e+00  1.785016e-05 -6.940985e-07 0.000000e+00  1.916273e-05 -6.409042e-07 0.000000e+00  2.034336e-05 -5.788944e-07 0.000000e+00  2.139441e-05 -5.085467e-07 0.000000e+00  2.231880e-05 -4.303601e-07 0.000000e+00  2.308324e-05 -3.451638e-07 0.000000e+00  2.365710e-05 -2.540298e-07 0.000000e+00  2.404810e-05 -1.578322e-07 0.000000e+00  2.426452e-05 -5.744953e-08 0.000000e+00  2.428202e-05 4.566935e-08 0.000000e+00  2.408082e-05 1.498400e-07 0.000000e+00  2.367687e-05 2.538546e-07 0.000000e+00  2.308654e-05 3.565336e-07 0.000000e+00  2.229892e-05 4.558976e-07 0.000000e+00  2.130947e-05 5.497646e-07 0.000000e+00  2.014441e-05 6.367295e-07 0.000000e+00  1.882996e-05 7.154599e-07 0.000000e+00  1.737216e-05 7.836210e-07 0.000000e+00  1.578469e-05 8.387425e-07 0.000000e+00  1.410468e-05 8.794329e-07 0.000000e+00  1.236854e-05 9.044242e-07 0.000000e+00  1.060079e-05 9.113210e-07 0.000000e+00  8.834013e-06 8.977434e-07 0.000000e+00  7.114534e-06 8.627008e-07 0.000000e+00  5.486581e-06 8.054574e-07 0.000000e+00  3.990564e-06 7.244088e-07 0.000000e+00  2.672320e-06 6.187124e-07 0.000000e+00  1.577621e-06 4.899587e-07 0.000000e+00  7.437697e-07 3.419199e-07 0.000000e+00  1.993649e-07 1.825926e-07 0.000000e+00  -5.071282e-08 3.234246e-08 0.000000e+00  -6.049812e-08 -6.063724e-08 0.000000e+00  -1.369954e-11 -1.215383e-11 0.000000e+00  6.639720e-13 -2.657582e-12 0.000000e+00  -2.222070e-08 -5.426841e-08 0.000000e+00  -2.473504e-07 2.499730e-07 0.000000e+00  -8.288914e-07 6.993846e-07 0.000000e+00  -1.824554e-06 1.180892e-06 0.000000e+00  -3.236240e-06 1.636357e-06 0.000000e+00  -5.030859e-06 2.036595e-06 0.000000e+00  -7.155564e-06 2.367672e-06 0.000000e+00  -9.547321e-06 2.623891e-06 0.000000e+00  -1.213872e-05 2.804250e-06 0.000000e+00  -1.486166e-05 2.910558e-06 0.000000e+00  -1.764976e-05 2.946376e-06 0.000000e+00  -2.043987e-05 2.916408e-06 0.000000e+00  -2.318083e-05 2.827228e-06 0.000000e+00  -2.579585e-05 2.681438e-06 0.000000e+00  -2.824992e-05 2.487631e-06 0.000000e+00  -3.052211e-05 2.254245e-06 0.000000e+00  -3.255841e-05 1.985639e-06 0.000000e+00  -3.430331e-05 1.686574e-06 0.000000e+00  -3.575406e-05 1.365442e-06 0.000000e+00  -3.692058e-05 1.030016e-06 0.000000e+00  -3.776518e-05 6.845945e-07 0.000000e+00  -3.824996e-05 3.336927e-07 0.000000e+00  -3.840157e-05 -1.572362e-08 0.000000e+00  -3.825658e-05 -3.575369e-07 0.000000e+00  -3.779210e-05 -6.882791e-07 0.000000e+00  -3.698566e-05 -1.004400e-06 0.000000e+00  -3.588670e-05 -1.301024e-06 0.000000e+00  -3.455112e-05 -1.574214e-06 0.000000e+00  -3.296690e-05 -1.821770e-06 0.000000e+00  -3.112262e-05 -2.041487e-06 0.000000e+00  -2.908201e-05 -2.230844e-06 0.000000e+00  -2.691157e-05 -2.388257e-06 0.000000e+00  -2.460507e-05 -2.512928e-06 0.000000e+00  -2.215686e-05 -2.604075e-06 0.000000e+00  -1.963596e-05 -2.661480e-06 0.000000e+00  -1.711070e-05 -2.685771e-06 0.000000e+00  -1.457546e-05 -2.677432e-06 0.000000e+00  -1.202527e-05 -2.636933e-06 0.000000e+00  -9.526119e-06 -2.566046e-06 0.000000e+00  -7.140342e-06 -2.467241e-06 0.000000e+00  -4.858622e-06 -2.341963e-06 0.000000e+00  -2.672532e-06 -2.191578e-06 0.000000e+00  -6.383167e-07 -2.019355e-06 0.000000e+00  1.193837e-06 -1.829081e-06 0.000000e+00  2.839744e-06 -1.622715e-06 0.000000e+00  4.313838e-06 -1.402053e-06 0.000000e+00  5.574299e-06 -1.171272e-06 0.000000e+00  6.587015e-06 -9.348724e-07 0.000000e+00  7.375302e-06 -6.948257e-07 0.000000e+00  7.960285e-06 -4.528604e-07 0.000000e+00  8.316920e-06 -2.134503e-07 0.000000e+00  8.428766e-06 1.879963e-08 0.000000e+00  8.325749e-06 2.423847e-07 0.000000e+00  8.034513e-06 4.561112e-07 0.000000e+00  7.546860e-06 6.557747e-07 0.000000e+00  6.863388e-06 8.372107e-07 0.000000e+00  6.018032e-06 9.997865e-07 0.000000e+00  5.040156e-06 1.143220e-06 0.000000e+00  3.936485e-06 1.264043e-06 0.000000e+00  2.722124e-06 1.358963e-06 0.000000e+00  1.431098e-06 1.428502e-06 0.000000e+00  9.149273e-08 1.473536e-06 0.000000e+00  -1.278501e-06 1.491653e-06 0.000000e+00  -2.653190e-06 1.480722e-06 0.000000e+00  -4.003165e-06 1.442545e-06 0.000000e+00  -5.306245e-06 1.379235e-06 0.000000e+00  -6.537164e-06 1.289600e-06 0.000000e+00  -7.664342e-06 1.172784e-06 0.000000e+00  -8.667832e-06 1.031817e-06 0.000000e+00  -9.535962e-06 8.699615e-07 0.000000e+00  -1.024106e-05 6.872255e-07 0.000000e+00  -1.075045e-05 4.839639e-07 0.000000e+00  -1.105797e-05 2.642142e-07 0.000000e+00  -1.116637e-05 3.211884e-08 0.000000e+00  -1.104982e-05 -2.113042e-07 0.000000e+00  -1.067882e-05 -4.647181e-07 0.000000e+00  -1.006410e-05 -7.234660e-07 0.000000e+00  -9.225381e-06 -9.829488e-07 0.000000e+00  -8.141949e-06 -1.241479e-06 0.000000e+00  -6.790530e-06 -1.497110e-06 0.000000e+00  -5.200141e-06 -1.745087e-06 0.000000e+00  -3.408163e-06 -1.980900e-06 0.000000e+00  -1.400696e-06 -2.202644e-06 0.000000e+00  8.378499e-07 -2.408239e-06 0.000000e+00  3.260989e-06 -2.593436e-06 0.000000e+00  5.815247e-06 -2.754435e-06 0.000000e+00  8.507846e-06 -2.889625e-06 0.000000e+00  1.134716e-05 -2.997308e-06 0.000000e+00  1.427243e-05 -3.074375e-06 0.000000e+00  1.721806e-05 -3.118356e-06 0.000000e+00  2.018669e-05 -3.128441e-06 0.000000e+00  2.318188e-05 -3.103802e-06 0.000000e+00  2.613415e-05 -3.043049e-06 0.000000e+00  2.897201e-05 -2.945600e-06 0.000000e+00  3.169736e-05 -2.811855e-06 0.000000e+00  3.431306e-05 -2.642250e-06 0.000000e+00  3.674842e-05 -2.437561e-06 0.000000e+00  3.893410e-05 -2.199486e-06 0.000000e+00  4.087645e-05 -1.929896e-06 0.000000e+00  4.258281e-05 -1.630692e-06 0.000000e+00  4.399013e-05 -1.305052e-06 0.000000e+00  4.504034e-05 -9.571232e-07 0.000000e+00  4.574989e-05 -5.902638e-07 0.000000e+00  4.613616e-05 -2.078085e-07 0.000000e+00  4.615289e-05 1.847023e-07 0.000000e+00  4.576247e-05 5.808096e-07 0.000000e+00  4.499656e-05 9.759209e-07 0.000000e+00  4.388748e-05 1.365582e-06 0.000000e+00  4.241407e-05 1.742256e-06 0.000000e+00  4.056706e-05 2.097647e-06 0.000000e+00  3.839692e-05 2.426484e-06 0.000000e+00  3.595386e-05 2.723795e-06 0.000000e+00  3.324794e-05 2.980778e-06 0.000000e+00  3.030334e-05 3.188185e-06 0.000000e+00  2.718989e-05 3.340972e-06 0.000000e+00  2.397556e-05 3.434598e-06 0.000000e+00  2.070349e-05 3.460313e-06 0.000000e+00  1.743118e-05 3.409642e-06 0.000000e+00  1.424293e-05 3.279587e-06 0.000000e+00  1.121797e-05 3.068286e-06 0.000000e+00  8.424624e-06 2.770966e-06 0.000000e+00  5.939179e-06 2.386303e-06 0.000000e+00  3.837741e-06 1.922545e-06 0.000000e+00  2.178477e-06 1.395998e-06 0.000000e+00  1.000640e-06 8.368409e-07 0.000000e+00  3.083642e-07 3.111292e-07 0.000000e+00  3.182750e-08 -5.049631e-08 0.000000e+00  -1.349978e-11 -1.609597e-11 0.000000e+00  4.190220e-12 -3.976662e-12 0.000000e+00  -1.496715e-07 1.480580e-07 0.000000e+00  -6.948711e-07 8.312546e-07 0.000000e+00  -1.742571e-06 1.745774e-06 0.000000e+00  -3.333090e-06 2.714051e-06 0.000000e+00  -5.459353e-06 3.633802e-06 0.000000e+00  -8.078469e-06 4.447840e-06 0.000000e+00  -1.112451e-05 5.125750e-06 0.000000e+00  -1.451772e-05 5.653229e-06 0.000000e+00  -1.817132e-05 6.025912e-06 0.000000e+00  -2.199622e-05 6.245742e-06 0.000000e+00  -2.590442e-05 6.318795e-06 0.000000e+00  -2.981135e-05 6.253920e-06 0.000000e+00  -3.364904e-05 6.064267e-06 0.000000e+00  -3.730960e-05 5.754639e-06 0.000000e+00  -4.074713e-05 5.342906e-06 0.000000e+00  -4.393502e-05 4.846767e-06 0.000000e+00  -4.679653e-05 4.275198e-06 0.000000e+00  -4.925244e-05 3.638103e-06 0.000000e+00  -5.130062e-05 2.953336e-06 0.000000e+00  -5.295669e-05 2.237476e-06 0.000000e+00  -5.416573e-05 1.499590e-06 0.000000e+00  -5.487228e-05 7.492556e-07 0.000000e+00  -5.511505e-05 1.427804e-09 0.000000e+00  -5.494667e-05 -7.307506e-07 0.000000e+00  -5.433253e-05 -1.439887e-06 0.000000e+00  -5.323846e-05 -2.118376e-06 0.000000e+00  -5.173508e-05 -2.755687e-06 0.000000e+00  -4.990219e-05 -3.343321e-06 0.000000e+00  -4.772025e-05 -3.876548e-06 0.000000e+00  -4.517056e-05 -4.350592e-06 0.000000e+00  -4.234392e-05 -4.759971e-06 0.000000e+00  -3.933514e-05 -5.101232e-06 0.000000e+00  -3.613285e-05 -5.372624e-06 0.000000e+00  -3.272659e-05 -5.572394e-06 0.000000e+00  -2.921478e-05 -5.700020e-06 0.000000e+00  -2.569493e-05 -5.756821e-06 0.000000e+00  -2.215671e-05 -5.743778e-06 0.000000e+00  -1.859086e-05 -5.661810e-06 0.000000e+00  -1.509174e-05 -5.514696e-06 0.000000e+00  -1.174847e-05 -5.307743e-06 0.000000e+00  -8.545837e-06 -5.043984e-06 0.000000e+00  -5.470081e-06 -4.726254e-06 0.000000e+00  -2.601925e-06 -4.361584e-06 0.000000e+00  -1.344218e-08 -3.958139e-06 0.000000e+00  2.319376e-06 -3.520047e-06 0.000000e+00  4.418331e-06 -3.051067e-06 0.000000e+00  6.222982e-06 -2.560209e-06 0.000000e+00  7.683927e-06 -2.057201e-06 0.000000e+00  8.835339e-06 -1.546192e-06 0.000000e+00  9.707999e-06 -1.030792e-06 0.000000e+00  1.026515e-05 -5.206772e-07 0.000000e+00  1.048238e-05 -2.582061e-08 0.000000e+00  1.040276e-05 4.506387e-07 0.000000e+00  1.006439e-05 9.062422e-07 0.000000e+00  9.454373e-06 1.331873e-06 0.000000e+00  8.572498e-06 1.718491e-06 0.000000e+00  7.467048e-06 2.064837e-06 0.000000e+00  6.179505e-06 2.370416e-06 0.000000e+00  4.718210e-06 2.627677e-06 0.000000e+00  3.103638e-06 2.829452e-06 0.000000e+00  1.383778e-06 2.976968e-06 0.000000e+00  -4.021142e-07 3.072216e-06 0.000000e+00  -2.229264e-06 3.109919e-06 0.000000e+00  -4.061981e-06 3.085395e-06 0.000000e+00  -5.859173e-06 3.002626e-06 0.000000e+00  -7.590295e-06 2.866266e-06 0.000000e+00  -9.220269e-06 2.673652e-06 0.000000e+00  -1.070476e-05 2.422846e-06 0.000000e+00  -1.201638e-05 2.120471e-06 0.000000e+00  -1.313971e-05 1.773643e-06 0.000000e+00  -1.403590e-05 1.382277e-06 0.000000e+00  -1.465873e-05 9.470407e-07 0.000000e+00  -1.500048e-05 4.767160e-07 0.000000e+00  -1.506635e-05 -1.970389e-08 0.000000e+00  -1.481966e-05 -5.401337e-07 0.000000e+00  -1.421824e-05 -1.081791e-06 0.000000e+00  -1.327842e-05 -1.634579e-06 0.000000e+00  -1.202950e-05 -2.188544e-06 0.000000e+00  -1.044155e-05 -2.740161e-06 0.000000e+00  -8.480729e-06 -3.285338e-06 0.000000e+00  -6.189303e-06 -3.813786e-06 0.000000e+00  -3.621511e-06 -4.315774e-06 0.000000e+00  -7.565826e-07 -4.787311e-06 0.000000e+00  2.428920e-06 -5.224012e-06 0.000000e+00  5.868083e-06 -5.616708e-06 0.000000e+00  9.483998e-06 -5.957224e-06 0.000000e+00  1.328849e-05 -6.242202e-06 0.000000e+00  1.729522e-05 -6.468071e-06 0.000000e+00  2.141721e-05 -6.628144e-06 0.000000e+00  2.556058e-05 -6.717143e-06 0.000000e+00  2.973111e-05 -6.733418e-06 0.000000e+00  3.393603e-05 -6.675266e-06 0.000000e+00  3.807618e-05 -6.539724e-06 0.000000e+00  4.204952e-05 -6.325595e-06 0.000000e+00  4.586117e-05 -6.033824e-06 0.000000e+00  4.951760e-05 -5.665400e-06 0.000000e+00  5.291809e-05 -5.222038e-06 0.00000