<?xml version="1.0"?>
<VTKFile type="UnstructuredGrid"  version="0.1"  >
<UnstructuredGrid>
<Piece  NumberOfPoints="16641" NumberOfCells="32768">
<Points>
<DataArray  type="Float32"  NumberOfComponents="3"  format="ascii">0 0 0  0.0078125 0 0  0.015625 0 0  0.0234375 0 0  0.03125 0 0  0.0390625 0 0  0.046875 0 0  0.0546875 0 0  0.0625 0 0  0.0703125 0 0  0.078125 0 0  0.0859375 0 0  0.09375 0 0  0.101562 0 0  0.109375 0 0  0.117188 0 0  0.125 0 0  0.132812 0 0  0.140625 0 0  0.148438 0 0  0.15625 0 0  0.164062 0 0  0.171875 0 0  0.179688 0 0  0.1875 0 0  0.195312 0 0  0.203125 0 0  0.210938 0 0  0.21875 0 0  0.226562 0 0  0.234375 0 0  0.242188 0 0  0.25 0 0  0.257812 0 0  0.265625 0 0  0.273438 0 0  0.28125 0 0  0.289062 0 0  0.296875 0 0  0.304688 0 0  0.3125 0 0  0.320312 0 0  0.328125 0 0  0.335938 0 0  0.34375 0 0  0.351562 0 0  0.359375 0 0  0.367188 0 0  0.375 0 0  0.382812 0 0  0.390625 0 0  0.398438 0 0  0.40625 0 0  0.414062 0 0  0.421875 0 0  0.429688 0 0  0.4375 0 0  0.445312 0 0  0.453125 0 0  0.460938 0 0  0.46875 0 0  0.476562 0 0  0.484375 0 0  0.492188 0 0  0.5 0 0  0.507812 0 0  0.515625 0 0  0.523438 0 0  0.53125 0 0  0.539062 0 0  0.546875 0 0  0.554688 0 0  0.5625 0 0  0.570312 0 0  0.578125 0 0  0.585938 0 0  0.59375 0 0  0.601562 0 0  0.609375 0 0  0.617188 0 0  0.625 0 0  0.632812 0 0  0.640625 0 0  0.648438 0 0  0.65625 0 0  0.664062 0 0  0.671875 0 0  0.679688 0 0  0.6875 0 0  0.695312 0 0  0.703125 0 0  0.710938 0 0  0.71875 0 0  0.726562 0 0  0.734375 0 0  0.742188 0 0  0.75 0 0  0.757812 0 0  0.765625 0 0  0.773438 0 0  0.78125 0 0  0.789062 0 0  0.796875 0 0  0.804688 0 0  0.8125 0 0  0.820312 0 0  0.828125 0 0  0.835938 0 0  0.84375 0 0  0.851562 0 0  0.859375 0 0  0.867188 0 0  0.875 0 0  0.882812 0 0  0.890625 0 0  0.898438 0 0  0.90625 0 0  0.914062 0 0  0.921875 0 0  0.929688 0 0  0.9375 0 0  0.945312 0 0  0.953125 0 0  0.960938 0 0  0.96875 0 0  0.976562 0 0  0.984375 0 0  0.992188 0 0  1 0 0  0 0.0078125 0  0.0078125 0.0078125 0  0.015625 0.0078125 0  0.0234375 0.0078125 0  0.03125 0.0078125 0  0.0390625 0.0078125 0  0.046875 0.0078125 0  0.0546875 0.0078125 0  0.0625 0.0078125 0  0.0703125 0.0078125 0  0.078125 0.0078125 0  0.0859375 0.0078125 0  0.09375 0.0078125 0  0.101562 0.0078125 0  0.109375 0.0078125 0  0.117188 0.0078125 0  0.125 0.0078125 0  0.132812 0.0078125 0  0.140625 0.0078125 0  0.148438 0.0078125 0  0.15625 0.0078125 0  0.164062 0.0078125 0  0.171875 0.0078125 0  0.179688 0.0078125 0  0.1875 0.0078125 0  0.195312 0.0078125 0  0.203125 0.0078125 0  0.210938 0.0078125 0  0.21875 0.0078125 0  0.226562 0.0078125 0  0.234375 0.0078125 0  0.242188 0.0078125 0  0.25 0.0078125 0  0.257812 0.0078125 0  0.265625 0.0078125 0  0.273438 0.0078125 0  0.28125 0.0078125 0  0.289062 0.0078125 0  0.296875 0.0078125 0  0.304688 0.0078125 0  0.3125 0.0078125 0  0.320312 0.0078125 0  0.328125 0.0078125 0  0.335938 0.0078125 0  0.34375 0.0078125 0  0.351562 0.0078125 0  0.359375 0.0078125 0  0.367188 0.0078125 0  0.375 0.0078125 0  0.382812 0.0078125 0  0.390625 0.0078125 0  0.398438 0.0078125 0  0.40625 0.0078125 0  0.414062 0.0078125 0  0.421875 0.0078125 0  0.429688 0.0078125 0  0.4375 0.0078125 0  0.445312 0.0078125 0  0.453125 0.0078125 0  0.460938 0.0078125 0  0.46875 0.0078125 0  0.476562 0.0078125 0  0.484375 0.0078125 0  0.492188 0.0078125 0  0.5 0.0078125 0  0.507812 0.0078125 0  0.515625 0.0078125 0  0.523438 0.0078125 0  0.53125 0.0078125 0  0.539062 0.0078125 0  0.546875 0.0078125 0  0.554688 0.0078125 0  0.5625 0.0078125 0  0.570312 0.0078125 0  0.578125 0.0078125 0  0.585938 0.0078125 0  0.59375 0.0078125 0  0.601562 0.0078125 0  0.609375 0.0078125 0  0.617188 0.0078125 0  0.625 0.0078125 0  0.632812 0.0078125 0  0.640625 0.0078125 0  0.648438 0.0078125 0  0.65625 0.0078125 0  0.664062 0.0078125 0  0.671875 0.0078125 0  0.679688 0.0078125 0  0.6875 0.0078125 0  0.695312 0.0078125 0  0.703125 0.0078125 0  0.710938 0.0078125 0  0.71875 0.0078125 0  0.726562 0.0078125 0  0.734375 0.0078125 0  0.742188 0.0078125 0  0.75 0.0078125 0  0.757812 0.0078125 0  0.765625 0.0078125 0  0.773438 0.0078125 0  0.78125 0.0078125 0  0.789062 0.0078125 0  0.796875 0.0078125 0  0.804688 0.0078125 0  0.8125 0.0078125 0  0.820312 0.0078125 0  0.828125 0.0078125 0  0.835938 0.0078125 0  0.84375 0.0078125 0  0.851562 0.0078125 0  0.859375 0.0078125 0  0.867188 0.0078125 0  0.875 0.0078125 0  0.882812 0.0078125 0  0.890625 0.0078125 0  0.898438 0.0078125 0  0.90625 0.0078125 0  0.914062 0.0078125 0  0.921875 0.0078125 0  0.929688 0.0078125 0  0.9375 0.0078125 0  0.945312 0.0078125 0  0.953125 0.0078125 0  0.960938 0.0078125 0  0.96875 0.0078125 0  0.976562 0.0078125 0  0.984375 0.0078125 0  0.992188 0.0078125 0  1 0.0078125 0  0 0.015625 0  0.0078125 0.015625 0  0.015625 0.015625 0  0.0234375 0.015625 0  0.03125 0.015625 0  0.0390625 0.015625 0  0.046875 0.015625 0  0.0546875 0.015625 0  0.0625 0.015625 0  0.0703125 0.015625 0  0.078125 0.015625 0  0.0859375 0.015625 0  0.09375 0.015625 0  0.101562 0.015625 0  0.109375 0.015625 0  0.117188 0.015625 0  0.125 0.015625 0  0.132812 0.015625 0  0.140625 0.015625 0  0.148438 0.015625 0  0.15625 0.015625 0  0.164062 0.015625 0  0.171875 0.015625 0  0.179688 0.015625 0  0.1875 0.015625 0  0.195312 0.015625 0  0.203125 0.015625 0  0.210938 0.015625 0  0.21875 0.015625 0  0.226562 0.015625 0  0.234375 0.015625 0  0.242188 0.015625 0  0.25 0.015625 0  0.257812 0.015625 0  0.265625 0.015625 0  0.273438 0.015625 0  0.28125 0.015625 0  0.289062 0.015625 0  0.296875 0.015625 0  0.304688 0.015625 0  0.3125 0.015625 0  0.320312 0.015625 0  0.328125 0.015625 0  0.335938 0.015625 0  0.34375 0.015625 0  0.351562 0.015625 0  0.359375 0.015625 0  0.367188 0.015625 0  0.375 0.015625 0  0.382812 0.015625 0  0.390625 0.015625 0  0.398438 0.015625 0  0.40625 0.015625 0  0.414062 0.015625 0  0.421875 0.015625 0  0.429688 0.015625 0  0.4375 0.015625 0  0.445312 0.015625 0  0.453125 0.015625 0  0.460938 0.015625 0  0.46875 0.015625 0  0.476562 0.015625 0  0.484375 0.015625 0  0.492188 0.015625 0  0.5 0.015625 0  0.507812 0.015625 0  0.515625 0.015625 0  0.523438 0.015625 0  0.53125 0.015625 0  0.539062 0.015625 0  0.546875 0.015625 0  0.554688 0.015625 0  0.5625 0.015625 0  0.570312 0.015625 0  0.578125 0.015625 0  0.585938 0.015625 0  0.59375 0.015625 0  0.601562 0.015625 0  0.609375 0.015625 0  0.617188 0.015625 0  0.625 0.015625 0  0.632812 0.015625 0  0.640625 0.015625 0  0.648438 0.015625 0  0.65625 0.015625 0  0.664062 0.015625 0  0.671875 0.015625 0  0.679688 0.015625 0  0.6875 0.015625 0  0.695312 0.015625 0  0.703125 0.015625 0  0.710938 0.015625 0  0.71875 0.015625 0  0.726562 0.015625 0  0.734375 0.015625 0  0.742188 0.015625 0  0.75 0.015625 0  0.757812 0.015625 0  0.765625 0.015625 0  0.773438 0.015625 0  0.78125 0.015625 0  0.789062 0.015625 0  0.796875 0.015625 0  0.804688 0.015625 0  0.8125 0.015625 0  0.820312 0.015625 0  0.828125 0.015625 0  0.835938 0.015625 0  0.84375 0.015625 0  0.851562 0.015625 0  0.859375 0.015625 0  0.867188 0.015625 0  0.875 0.015625 0  0.882812 0.015625 0  0.890625 0.015625 0  0.898438 0.015625 0  0.90625 0.015625 0  0.914062 0.015625 0  0.921875 0.015625 0  0.929688 0.015625 0  0.9375 0.015625 0  0.945312 0.015625 0  0.953125 0.015625 0  0.960938 0.015625 0  0.96875 0.015625 0  0.976562 0.015625 0  0.984375 0.015625 0  0.992188 0.015625 0  1 0.015625 0  0 0.0234375 0  0.0078125 0.0234375 0  0.015625 0.0234375 0  0.0234375 0.0234375 0  0.03125 0.0234375 0  0.0390625 0.0234375 0  0.046875 0.0234375 0  0.0546875 0.0234375 0  0.0625 0.0234375 0  0.0703125 0.0234375 0  0.078125 0.0234375 0  0.0859375 0.0234375 0  0.09375 0.0234375 0  0.101562 0.0234375 0  0.109375 0.0234375 0  0.117188 0.0234375 0  0.125 0.0234375 0  0.132812 0.0234375 0  0.140625 0.0234375 0  0.148438 0.0234375 0  0.15625 0.0234375 0  0.164062 0.0234375 0  0.171875 0.0234375 0  0.179688 0.0234375 0  0.1875 0.0234375 0  0.195312 0.0234375 0  0.203125 0.0234375 0  0.210938 0.0234375 0  0.21875 0.0234375 0  0.226562 0.0234375 0  0.234375 0.0234375 0  0.242188 0.0234375 0  0.25 0.0234375 0  0.257812 0.0234375 0  0.265625 0.0234375 0  0.273438 0.0234375 0  0.28125 0.0234375 0  0.289062 0.0234375 0  0.296875 0.0234375 0  0.304688 0.0234375 0  0.3125 0.0234375 0  0.320312 0.0234375 0  0.328125 0.0234375 0  0.335938 0.0234375 0  0.34375 0.0234375 0  0.351562 0.0234375 0  0.359375 0.0234375 0  0.367188 0.0234375 0  0.375 0.0234375 0  0.382812 0.0234375 0  0.390625 0.0234375 0  0.398438 0.0234375 0  0.40625 0.0234375 0  0.414062 0.0234375 0  0.421875 0.0234375 0  0.429688 0.0234375 0  0.4375 0.0234375 0  0.445312 0.0234375 0  0.453125 0.0234375 0  0.460938 0.0234375 0  0.46875 0.0234375 0  0.476562 0.0234375 0  0.484375 0.0234375 0  0.492188 0.0234375 0  0.5 0.0234375 0  0.507812 0.0234375 0  0.515625 0.0234375 0  0.523438 0.0234375 0  0.53125 0.0234375 0  0.539062 0.0234375 0  0.546875 0.0234375 0  0.554688 0.0234375 0  0.5625 0.0234375 0  0.570312 0.0234375 0  0.578125 0.0234375 0  0.585938 0.0234375 0  0.59375 0.0234375 0  0.601562 0.0234375 0  0.609375 0.0234375 0  0.617188 0.0234375 0  0.625 0.0234375 0  0.632812 0.0234375 0  0.640625 0.0234375 0  0.648438 0.0234375 0  0.65625 0.0234375 0  0.664062 0.0234375 0  0.671875 0.0234375 0  0.679688 0.0234375 0  0.6875 0.0234375 0  0.695312 0.0234375 0  0.703125 0.0234375 0  0.710938 0.0234375 0  0.71875 0.0234375 0  0.726562 0.0234375 0  0.734375 0.0234375 0  0.742188 0.0234375 0  0.75 0.0234375 0  0.757812 0.0234375 0  0.765625 0.0234375 0  0.773438 0.0234375 0  0.78125 0.0234375 0  0.789062 0.0234375 0  0.796875 0.0234375 0  0.804688 0.0234375 0  0.8125 0.0234375 0  0.820312 0.0234375 0  0.828125 0.0234375 0  0.835938 0.0234375 0  0.84375 0.0234375 0  0.851562 0.0234375 0  0.859375 0.0234375 0  0.867188 0.0234375 0  0.875 0.0234375 0  0.882812 0.0234375 0  0.890625 0.0234375 0  0.898438 0.0234375 0  0.90625 0.0234375 0  0.914062 0.0234375 0  0.921875 0.0234375 0  0.929688 0.0234375 0  0.9375 0.0234375 0  0.945312 0.0234
[...]
<PointData  Vectors="u"> 
<DataArray  type="Float32"  Name="u"  NumberOfComponents="3" format="ascii">2.975065e-12 1.164907e-12 0.000000e+00  -1.216327e-12 1.661435e-12 0.000000e+00  2.745079e-12 -5.995641e-12 0.000000e+00  5.314291e-12 -1.364864e-11 0.000000e+00  2.142928e-11 -2.577087e-11 0.000000e+00  5.230688e-11 -3.924289e-11 0.000000e+00  9.947592e-11 -5.251348e-11 0.000000e+00  1.620985e-10 -6.454120e-11 0.000000e+00  2.382948e-10 -7.469049e-11 0.000000e+00  3.256796e-10 -8.265682e-11 0.000000e+00  4.216513e-10 -8.833557e-11 0.000000e+00  5.235421e-10 -9.173783e-11 0.000000e+00  6.288627e-10 -9.295611e-11 0.000000e+00  7.348999e-10 -9.209664e-11 0.000000e+00  8.395468e-10 -8.934451e-11 0.000000e+00  9.406206e-10 -8.487090e-11 0.000000e+00  1.036092e-09 -7.885974e-11 0.000000e+00  1.124399e-09 -7.152275e-11 0.000000e+00  1.204196e-09 -6.306957e-11 0.000000e+00  1.274082e-09 -5.369399e-11 0.000000e+00  1.332939e-09 -4.359568e-11 0.000000e+00  1.380214e-09 -3.298240e-11 0.000000e+00  1.415484e-09 -2.204465e-11 0.000000e+00  1.438181e-09 -1.095811e-11 0.000000e+00  1.448080e-09 9.827718e-14 0.000000e+00  1.445524e-09 1.095610e-11 0.000000e+00  1.430854e-09 2.147374e-11 0.000000e+00  1.404210e-09 3.151671e-11 0.000000e+00  1.366118e-09 4.094835e-11 0.000000e+00  1.317588e-09 4.965813e-11 0.000000e+00  1.259475e-09 5.756668e-11 0.000000e+00  1.192420e-09 6.459262e-11 0.000000e+00  1.117478e-09 7.065330e-11 0.000000e+00  1.036042e-09 7.570228e-11 0.000000e+00  9.491922e-10 7.972352e-11 0.000000e+00  8.578310e-10 8.269132e-11 0.000000e+00  7.632839e-10 8.458000e-11 0.000000e+00  6.670333e-10 8.540336e-11 0.000000e+00  5.701165e-10 8.520012e-11 0.000000e+00  4.734563e-10 8.399496e-11 0.000000e+00  3.783930e-10 8.181455e-11 0.000000e+00  2.862393e-10 7.872128e-11 0.000000e+00  1.977741e-10 7.479344e-11 0.000000e+00  1.137375e-10 7.009480e-11 0.000000e+00  3.525969e-11 6.469368e-11 0.000000e+00  -3.671015e-11 5.868436e-11 0.000000e+00  -1.017896e-10 5.216602e-11 0.000000e+00  -1.595667e-10 4.522645e-11 0.000000e+00  -2.092884e-10 3.796063e-11 0.000000e+00  -2.504820e-10 3.047602e-11 0.000000e+00  -2.832123e-10 2.287330e-11 0.000000e+00  -3.074696e-10 1.524766e-11 0.000000e+00  -3.229728e-10 7.703748e-12 0.000000e+00  -3.297512e-10 3.436373e-13 0.000000e+00  -3.282848e-10 -6.747627e-12 0.000000e+00  -3.189657e-10 -1.348371e-11 0.000000e+00  -3.020003e-10 -1.976734e-11 0.000000e+00  -2.778657e-10 -2.551776e-11 0.000000e+00  -2.473545e-10 -3.067893e-11 0.000000e+00  -2.111919e-10 -3.518725e-11 0.000000e+00  -1.700112e-10 -3.896801e-11 0.000000e+00  -1.246172e-10 -4.197358e-11 0.000000e+00  -7.596430e-11 -4.418504e-11 0.000000e+00  -2.498547e-11 -4.557176e-11 0.000000e+00  2.738403e-11 -4.609326e-11 0.000000e+00  8.017552e-11 -4.574148e-11 0.000000e+00  1.324482e-10 -4.453708e-11 0.000000e+00  1.832234e-10 -4.248785e-11 0.000000e+00  2.314348e-10 -3.959426e-11 0.000000e+00  2.761329e-10 -3.588852e-11 0.000000e+00  3.165638e-10 -3.142759e-11 0.000000e+00  3.518791e-10 -2.625771e-11 0.000000e+00  3.810746e-10 -2.042124e-11 0.000000e+00  4.033950e-10 -1.398551e-11 0.000000e+00  4.184196e-10 -7.035270e-12 0.000000e+00  4.255965e-10 3.502748e-13 0.000000e+00  4.241701e-10 8.092181e-12 0.000000e+00  4.137216e-10 1.609843e-11 0.000000e+00  3.942620e-10 2.426916e-11 0.000000e+00  3.656659e-10 3.250296e-11 0.000000e+00  3.275784e-10 4.069566e-11 0.000000e+00  2.800044e-10 4.874519e-11 0.000000e+00  2.234212e-10 5.655214e-11 0.000000e+00  1.582018e-10 6.400798e-11 0.000000e+00  8.448357e-11 7.099975e-11 0.000000e+00  2.710401e-12 7.743265e-11 0.000000e+00  -8.621301e-11 8.322447e-11 0.000000e+00  -1.814175e-10 8.827750e-11 0.000000e+00  -2.822652e-10 9.248983e-11 0.000000e+00  -3.879372e-10 9.579203e-11 0.000000e+00  -4.972145e-10 9.813502e-11 0.000000e+00  -6.088194e-10 9.945065e-11 0.000000e+00  -7.216982e-10 9.966892e-11 0.000000e+00  -8.348004e-10 9.876221e-11 0.000000e+00  -9.467723e-10 9.672767e-11 0.000000e+00  -1.056099e-09 9.354376e-11 0.000000e+00  -1.161489e-09 8.919121e-11 0.000000e+00  -1.261871e-09 8.369654e-11 0.000000e+00  -1.355984e-09 7.711140e-11 0.000000e+00  -1.442320e-09 6.947341e-11 0.000000e+00  -1.519607e-09 6.082756e-11 0.000000e+00  -1.587005e-09 5.126034e-11 0.000000e+00  -1.643602e-09 4.087970e-11 0.000000e+00  -1.688182e-09 2.978790e-11 0.000000e+00  -1.719797e-09 1.809922e-11 0.000000e+00  -1.738104e-09 5.957640e-12 0.000000e+00  -1.742788e-09 -6.478430e-12 0.000000e+00  -1.733222e-09 -1.904583e-11 0.000000e+00  -1.709093e-09 -3.156714e-11 0.000000e+00  -1.670787e-09 -4.385286e-11 0.000000e+00  -1.618794e-09 -5.570815e-11 0.000000e+00  -1.553338e-09 -6.692380e-11 0.000000e+00  -1.474996e-09 -7.727863e-11 0.000000e+00  -1.385050e-09 -8.656045e-11 0.000000e+00  -1.284921e-09 -9.456135e-11 0.000000e+00  -1.175860e-09 -1.010549e-10 0.000000e+00  -1.059475e-09 -1.058132e-10 0.000000e+00  -9.379812e-10 -1.086404e-10 0.000000e+00  -8.137393e-10 -1.093576e-10 0.000000e+00  -6.890359e-10 -1.077793e-10 0.000000e+00  -5.664418e-10 -1.037494e-10 0.000000e+00  -4.489301e-10 -9.718353e-11 0.000000e+00  -3.395542e-10 -8.807120e-11 0.000000e+00  -2.412797e-10 -7.645830e-11 0.000000e+00  -1.571135e-10 -6.249807e-11 0.000000e+00  -9.019469e-11 -4.680696e-11 0.000000e+00  -4.316393e-11 -3.041276e-11 0.000000e+00  -1.792998e-11 -1.800575e-11 0.000000e+00  -1.332636e-11 -1.794210e-11 0.000000e+00  -4.698710e-12 1.965031e-12 0.000000e+00  5.564644e-08 -5.545570e-08 0.000000e+00  5.360983e-08 2.370827e-08 0.000000e+00  -1.516471e-07 1.525102e-07 0.000000e+00  -6.076341e-07 2.893828e-07 0.000000e+00  -1.313381e-06 4.171172e-07 0.000000e+00  -2.245634e-06 5.279898e-07 0.000000e+00  -3.370247e-06 6.187886e-07 0.000000e+00  -4.648588e-06 6.884963e-07 0.000000e+00  -6.040761e-06 7.372389e-07 0.000000e+00  -7.507430e-06 7.657888e-07 0.000000e+00  -9.010898e-06 7.753062e-07 0.000000e+00  -1.051580e-05 7.671877e-07 0.000000e+00  -1.199332e-05 7.432940e-07 0.000000e+00  -1.340240e-05 7.043952e-07 0.000000e+00  -1.472323e-05 6.528129e-07 0.000000e+00  -1.594368e-05 5.908170e-07 0.000000e+00  -1.703523e-05 5.195984e-07 0.000000e+00  -1.796876e-05 4.404333e-07 0.000000e+00  -1.874225e-05 3.555360e-07 0.000000e+00  -1.936050e-05 2.669630e-07 0.000000e+00  -1.980412e-05 1.758628e-07 0.000000e+00  -2.005375e-05 8.342298e-08 0.000000e+00  -2.012327e-05 -8.537121e-09 0.000000e+00  -2.003180e-05 -9.840891e-08 0.000000e+00  -1.976808e-05 -1.852737e-07 0.000000e+00  -1.932111e-05 -2.682080e-07 0.000000e+00  -1.871695e-05 -3.459470e-07 0.000000e+00  -1.798505e-05 -4.174589e-07 0.000000e+00  -1.712000e-05 -4.821637e-07 0.000000e+00  -1.611674e-05 -5.394951e-07 0.000000e+00  -1.500888e-05 -5.888071e-07 0.000000e+00  -1.383149e-05 -6.296842e-07 0.000000e+00  -1.258223e-05 -6.619179e-07 0.000000e+00  -1.125905e-05 -6.853173e-07 0.000000e+00  -9.898332e-06 -6.998372e-07 0.000000e+00  -8.536054e-06 -7.056406e-07 0.000000e+00  -7.170126e-06 -7.028578e-07 0.000000e+00  -5.798759e-06 -6.916264e-07 0.000000e+00  -4.456635e-06 -6.724184e-07 0.000000e+00  -3.176498e-06 -6.458781e-07 0.000000e+00  -1.954173e-06 -6.123894e-07 0.000000e+00  -7.858848e-07 -5.723241e-07 0.000000e+00  2.989359e-07 -5.265424e-07 0.000000e+00  1.274043e-06 -4.760311e-07 0.000000e+00  2.147218e-06 -4.213102e-07 0.000000e+00  2.925602e-06 -3.628636e-07 0.000000e+00  3.587474e-06 -3.017847e-07 0.000000e+00  4.115154e-06 -2.392450e-07 0.000000e+00  4.520578e-06 -1.757696e-07 0.000000e+00  4.814627e-06 -1.118233e-07 0.000000e+00  4.984509e-06 -4.857304e-08 0.000000e+00  5.021929e-06 1.278328e-08 0.000000e+00  4.942507e-06 7.184177e-08 0.000000e+00  4.760241e-06 1.282787e-07 0.000000e+00  4.471273e-06 1.810010e-07 0.000000e+00  4.076321e-06 2.289267e-07 0.000000e+00  3.593306e-06 2.718788e-07 0.000000e+00  3.037847e-06 3.097733e-07 0.000000e+00  2.413961e-06 3.417123e-07 0.000000e+00  1.730008e-06 3.668424e-07 0.000000e+00  1.004114e-06 3.852869e-07 0.000000e+00  2.513782e-07 3.972658e-07 0.000000e+00  -5.181735e-07 4.021606e-07 0.000000e+00  -1.290651e-06 3.994204e-07 0.000000e+00  -2.050240e-06 3.895022e-07 0.000000e+00  -2.784839e-06 3.729519e-07 0.000000e+00  -3.480776e-06 3.494709e-07 0.000000e+00  -4.121154e-06 3.188412e-07 0.000000e+00  -4.695065e-06 2.818411e-07 0.000000e+00  -5.195881e-06 2.393185e-07 0.000000e+00  -5.608791e-06 1.912903e-07 0.000000e+00  -5.916458e-06 1.378544e-07 0.000000e+00  -6.115208e-06 8.005298e-08 0.000000e+00  -6.205994e-06 1.896694e-08 0.000000e+00  -6.175150e-06 -4.512156e-08 0.000000e+00  -6.007177e-06 -1.118583e-07 0.000000e+00  -5.707327e-06 -1.800377e-07 0.000000e+00  -5.285535e-06 -2.484560e-07 0.000000e+00  -4.731025e-06 -3.166548e-07 0.000000e+00  -4.031782e-06 -3.841210e-07 0.000000e+00  -3.202752e-06 -4.496205e-07 0.000000e+00  -2.263256e-06 -5.119696e-07 0.000000e+00  -1.206331e-06 -5.706522e-07 0.000000e+00  -2.422102e-08 -6.251202e-07 0.000000e+00  1.258832e-06 -6.742694e-07 0.000000e+00  2.614912e-06 -7.170976e-07 0.000000e+00  4.047248e-06 -7.531660e-07 0.000000e+00  5.559590e-06 -7.820266e-07 0.000000e+00  7.120070e-06 -8.028704e-07 0.000000e+00  8.694260e-06 -8.150408e-07 0.000000e+00  1.028278e-05 -8.183084e-07 0.000000e+00  1.188668e-05 -8.124551e-07 0.000000e+00  1.346939e-05 -7.971186e-07 0.000000e+00  1.499328e-05 -7.721336e-07 0.000000e+00  1.645843e-05 -7.375907e-07 0.000000e+00  1.786542e-05 -6.936033e-07 0.000000e+00  1.917698e-05 -6.403739e-07 0.000000e+00  2.035653e-05 -5.783334e-07 0.000000e+00  2.140645e-05 -5.079605e-07 0.000000e+00  2.232967e-05 -4.297550e-07 0.000000e+00  2.309290e-05 -3.445468e-07 0.000000e+00  2.366554e-05 -2.534086e-07 0.000000e+00  2.405531e-05 -1.572147e-07 0.000000e+00  2.427053e-05 -5.684377e-08 0.000000e+00  2.428685e-05 4.625529e-08 0.000000e+00  2.408453e-05 1.503984e-07 0.000000e+00  2.367951e-05 2.543782e-07 0.000000e+00  2.308818e-05 3.570158e-07 0.000000e+00  2.229966e-05 4.563326e-07 0.000000e+00  2.130939e-05 5.501477e-07 0.000000e+00  2.014362e-05 6.370570e-07 0.000000e+00  1.882858e-05 7.157290e-07 0.000000e+00  1.737030e-05 7.838304e-07 0.000000e+00  1.578246e-05 8.388917e-07 0.000000e+00  1.410221e-05 8.795229e-07 0.000000e+00  1.236593e-05 9.044570e-07 0.000000e+00  1.059816e-05 9.112998e-07 0.000000e+00  8.831452e-06 8.976728e-07 0.000000e+00  7.112138e-06 8.625864e-07 0.000000e+00  5.484429e-06 8.053066e-07 0.000000e+00  3.988717e-06 7.242304e-07 0.000000e+00  2.670823e-06 6.185172e-07 0.000000e+00  1.576495e-06 4.897597e-07 0.000000e+00  7.430073e-07 3.417331e-07 0.000000e+00  1.989287e-07 1.824366e-07 0.000000e+00  -5.089666e-08 3.223806e-08 0.000000e+00  -6.053547e-08 -6.067464e-08 0.000000e+00  -1.369174e-11 -1.214951e-11 0.000000e+00  6.614960e-13 -2.655392e-12 0.000000e+00  -2.217330e-08 -5.433673e-08 0.000000e+00  -2.471468e-07 2.497687e-07 0.000000e+00  -8.284132e-07 6.990426e-07 0.000000e+00  -1.823694e-06 1.180435e-06 0.000000e+00  -3.234915e-06 1.635816e-06 0.000000e+00  -5.029010e-06 2.036002e-06 0.000000e+00  -7.153161e-06 2.367058e-06 0.000000e+00  -9.544359e-06 2.623285e-06 0.000000e+00  -1.213522e-05 2.803678e-06 0.000000e+00  -1.485767e-05 2.910042e-06 0.000000e+00  -1.764534e-05 2.945937e-06 0.000000e+00  -2.043510e-05 2.916064e-06 0.000000e+00  -2.317580e-05 2.826992e-06 0.000000e+00  -2.579067e-05 2.681320e-06 0.000000e+00  -2.824471e-05 2.487638e-06 0.000000e+00  -3.051699e-05 2.254380e-06 0.000000e+00  -3.255349e-05 1.985902e-06 0.000000e+00  -3.429871e-05 1.686960e-06 0.000000e+00  -3.574989e-05 1.365943e-06 0.000000e+00  -3.691695e-05 1.030620e-06 0.000000e+00  -3.776218e-05 6.852876e-07 0.000000e+00  -3.824766e-05 3.344568e-07 0.000000e+00  -3.840003e-05 -1.490848e-08 0.000000e+00  -3.825583e-05 -3.566927e-07 0.000000e+00  -3.779217e-05 -6.874289e-07 0.000000e+00  -3.698653e-05 -1.003568e-06 0.000000e+00  -3.588834e-05 -1.300232e-06 0.000000e+00  -3.455349e-05 -1.573485e-06 0.000000e+00  -3.296992e-05 -1.821126e-06 0.000000e+00  -3.112621e-05 -2.040945e-06 0.000000e+00  -2.908605e-05 -2.230422e-06 0.000000e+00  -2.691596e-05 -2.387967e-06 0.000000e+00  -2.460966e-05 -2.512780e-06 0.000000e+00  -2.216152e-05 -2.604077e-06 0.000000e+00  -1.964053e-05 -2.661634e-06 0.000000e+00  -1.711505e-05 -2.686078e-06 0.000000e+00  -1.457943e-05 -2.677891e-06 0.000000e+00  -1.202871e-05 -2.637538e-06 0.000000e+00  -9.528907e-06 -2.566790e-06 0.000000e+00  -7.142339e-06 -2.468114e-06 0.000000e+00  -4.859708e-06 -2.342956e-06 0.000000e+00  -2.672594e-06 -2.192680e-06 0.000000e+00  -6.372532e-07 -2.020553e-06 0.000000e+00  1.196115e-06 -1.830364e-06 0.000000e+00  2.843315e-06 -1.624069e-06 0.000000e+00  4.318767e-06 -1.403467e-06 0.000000e+00  5.580642e-06 -1.172735e-06 0.000000e+00  6.594814e-06 -9.363723e-07 0.000000e+00  7.384592e-06 -6.963524e-07 0.000000e+00  7.971089e-06 -4.544042e-07 0.000000e+00  8.329253e-06 -2.150023e-07 0.000000e+00  8.442634e-06 1.724748e-08 0.000000e+00  8.341149e-06 2.408398e-07 0.000000e+00  8.051439e-06 4.545803e-07 0.000000e+00  7.565296e-06 6.542637e-07 0.000000e+00  6.883313e-06 8.357247e-07 0.000000e+00  6.039422e-06 9.983304e-07 0.000000e+00  5.062981e-06 1.141798e-06 0.000000e+00  3.960711e-06 1.262658e-06 0.000000e+00  2.747714e-06 1.357620e-06 0.000000e+00  1.458012e-06 1.427203e-06 0.000000e+00  1.196881e-07 1.472282e-06 0.000000e+00  -1.249070e-06 1.490447e-06 0.000000e+00  -2.622571e-06 1.479567e-06 0.000000e+00  -3.971407e-06 1.441441e-06 0.000000e+00  -5.273399e-06 1.378184e-06 0.000000e+00  -6.503282e-06 1.288603e-06 0.000000e+00  -7.629477e-06 1.171841e-06 0.000000e+00  -8.632037e-06 1.030930e-06 0.000000e+00  -9.499293e-06 8.691301e-07 0.000000e+00  -1.020357e-05 6.864502e-07 0.000000e+00  -1.071220e-05 4.832451e-07 0.000000e+00  -1.101902e-05 2.635526e-07 0.000000e+00  -1.112676e-05 3.151519e-08 0.000000e+00  -1.100962e-05 -2.118487e-07 0.000000e+00  -1.063809e-05 -4.652018e-07 0.000000e+00  -1.002291e-05 -7.238865e-07 0.000000e+00  -9.183789e-06 -9.833031e-07 0.000000e+00  -8.100025e-06 -1.241763e-06 0.000000e+00  -6.748348e-06 -1.497320e-06 0.000000e+00  -5.157781e-06 -1.745216e-06 0.000000e+00  -3.365709e-06 -1.980941e-06 0.000000e+00  -1.358240e-06 -2.202591e-06 0.000000e+00  8.802086e-07 -2.408083e-06 0.000000e+00  3.303142e-06 -2.593168e-06 0.000000e+00  5.857078e-06 -2.754045e-06 0.000000e+00  8.549229e-06 -2.889104e-06 0.000000e+00  1.138796e-05 -2.996646e-06 0.000000e+00  1.431250e-05 -3.073563e-06 0.000000e+00  1.725726e-05 -3.117388e-06 0.000000e+00  2.022486e-05 -3.127310e-06 0.000000e+00  2.321886e-05 -3.102505e-06 0.000000e+00  2.616977e-05 -3.041586e-06 0.000000e+00  2.900611e-05 -2.943973e-06 0.000000e+00  3.172980e-05 -2.810071e-06 0.000000e+00  3.434368e-05 -2.640318e-06 0.000000e+00  3.677708e-05 -2.435494e-06 0.000000e+00  3.896069e-05 -2.197302e-06 0.000000e+00  4.090087e-05 -1.927615e-06 0.000000e+00  4.260498e-05 -1.628339e-06 0.000000e+00  4.400998e-05 -1.302654e-06 0.000000e+00  4.505785e-05 -9.547091e-07 0.000000e+00  4.576505e-05 -5.878637e-07 0.000000e+00  4.614901e-05 -2.054533e-07 0.000000e+00  4.616348e-05 1.869824e-07 0.000000e+00  4.577089e-05 5.829851e-07 0.000000e+00  4.500292e-05 9.779644e-07 0.000000e+00  4.389192e-05 1.367468e-06 0.000000e+00  4.241675e-05 1.743965e-06 0.000000e+00  4.056815e-05 2.099158e-06 0.000000e+00  3.839661e-05 2.427785e-06 0.000000e+00  3.595237e-05 2.724874e-06 0.000000e+00  3.324547e-05 2.981631e-06 0.000000e+00  3.030011e-05 3.188810e-06 0.000000e+00  2.718612e-05 3.341372e-06 0.000000e+00  2.397145e-05 3.434782e-06 0.000000e+00  2.069925e-05 3.460293e-06 0.000000e+00  1.742698e-05 3.409434e-06 0.000000e+00  1.423895e-05 3.279214e-06 0.000000e+00  1.121435e-05 3.067775e-06 0.000000e+00  8.421478e-06 2.770350e-06 0.000000e+00  5.936591e-06 2.385622e-06 0.000000e+00  3.835755e-06 1.921846e-06 0.000000e+00  2.177090e-06 1.395336e-06 0.000000e+00  9.997997e-07 8.362788e-07 0.000000e+00  3.079676e-07 3.107321e-07 0.000000e+00  3.172345e-08 -5.068000e-08 0.000000e+00  -1.349080e-11 -1.608842e-11 0.000000e+00  4.188443e-12 -3.975825e-12 0.000000e+00  -1.495831e-07 1.478530e-07 0.000000e+00  -6.945289e-07 8.307754e-07 0.000000e+00  -1.741825e-06 1.745029e-06 0.000000e+00  -3.331809e-06 2.713083e-06 0.000000e+00  -5.457437e-06 3.632671e-06 0.000000e+00  -8.075849e-06 4.446608e-06 0.000000e+00  -1.112115e-05 5.124480e-06 0.000000e+00  -1.451363e-05 5.651979e-06 0.000000e+00  -1.816652e-05 6.024736e-06 0.000000e+00  -2.199078e-05 6.244689e-06 0.000000e+00  -2.589843e-05 6.317905e-06 0.000000e+00  -2.980491e-05 6.253231e-06 0.000000e+00  -3.364229e-05 6.063807e-06 0.000000e+00  -3.730269e-05 5.754429e-06 0.000000e+00  -4.074022e-05 5.342961e-06 0.000000e+00  -4.392826e-05 4.847094e-06 0.000000e+00  -4.679009e-05 4.275795e-06 0.000000e+00  -4.924649e-05 3.638960e-06 0.000000e+00  -5.129531e-05 2.954436e-06 0.000000e+00  -5.295215e-05 2.238795e-06 0.000000e+00  -5.416210e-05 1.501096e-06 0.000000e+00  -5.486965e-05 7.509112e-07 0.000000e+00  -5.511350e-05 3.190141e-09 0.000000e+00  -5.494624e-05 -7.289282e-07 0.000000e+00  -5.433326e-05 -1.438054e-06 0.000000e+00  -5.324032e-05 -2.116583e-06 0.000000e+00  -5.173805e-05 -2.753982e-06 0.000000e+00  -4.990618e-05 -3.341755e-06 0.000000e+00  -4.772517e-05 -3.875164e-06 0.000000e+00  -4.517626e-05 -4.349431e-06 0.000000e+00  -4.235027e-05 -4.759068e-06 0.000000e+00  -3.934196e-05 -5.100616e-06 0.000000e+00  -3.613995e-05 -5.372316e-06 0.000000e+00  -3.273377e-05 -5.572411e-06 0.000000e+00  -2.922184e-05 -5.700369e-06 0.000000e+00  -2.570165e-05 -5.757504e-06 0.000000e+00  -2.216287e-05 -5.744790e-06 0.000000e+00  -1.859626e-05 -5.663141e-06 0.000000e+00  -1.509618e-05 -5.516332e-06 0.000000e+00  -1.175177e-05 -5.309665e-06 0.000000e+00  -8.547808e-06 -5.046169e-06 0.000000e+00  -5.470561e-06 -4.728680e-06 0.000000e+00  -2.600764e-06 -4.364224e-06 0.000000e+00  -1.050901e-08 -3.960968e-06 0.000000e+00  2.324197e-06 -3.523038e-06 0.000000e+00  4.425141e-06 -3.054193e-06 0.000000e+00  6.231864e-06 -2.563447e-06 0.000000e+00  7.694948e-06 -2.060525e-06 0.000000e+00  8.848551e-06 -1.549579e-06 0.000000e+00  9.723441e-06 -1.034222e-06 0.000000e+00  1.028284e-05 -5.241291e-07 0.000000e+00  1.050234e-05 -2.927726e-08 0.000000e+00  1.042500e-05 4.471937e-07 0.000000e+00  1.008889e-05 9.028235e-07 0.000000e+00  9.481117e-06 1.328494e-06 0.000000e+00  8.601462e-06 1.715163e-06 0.000000e+00  7.498198e-06 2.061571e-06 0.000000e+00  6.212802e-06 2.367222e-06 0.000000e+00  4.753608e-06 2.624563e-06 0.000000e+00  3.141085e-06 2.826426e-06 0.000000e+00  1.423219e-06 2.974036e-06 0.000000e+00  -3.607399e-07 3.069384e-06 0.000000e+00  -2.186020e-06 3.107190e-06 0.000000e+00  -4.016935e-06 3.082776e-06 0.000000e+00  -5.812396e-06 3.000119e-06 0.000000e+00  -7.541859e-06 2.863875e-06 0.000000e+00  -9.170248e-06 2.671380e-06 0.000000e+00  -1.065324e-05 2.420694e-06 0.000000e+00  -1.196342e-05 2.118441e-06 0.000000e+00  -1.308541e-05 1.771737e-06 0.000000e+00  -1.398034e-05 1.380496e-06 0.000000e+00  -1.460198e-05 9.453865e-07 0.000000e+00  -1.494263e-05 4.751905e-07 0.000000e+00  -1.500749e-05 -2.109832e-08 0.000000e+00  -1.475988e-05 -5.413938e-07 0.000000e+00  -1.415763e-05 -1.082913e-06 0.000000e+00  -1.321708e-05 -1.635557e-06 0.000000e+00  -1.196752e-05 -2.189370e-06 0.000000e+00  -1.037904e-05 -2.740827e-06 0.000000e+00  -8.417811e-06 -3.285833e-06 0.000000e+00  -6.126090e-06 -3.814098e-06 0.000000e+00  -3.558133e-06 -4.315887e-06 0.000000e+00  -6.931787e-07 -4.787210e-06 0.000000e+00  2.492199e-06 -5.223677e-06 0.000000e+00  5.931075e-06 -5.616121e-06 0.000000e+00  9.546528e-06 -5.956363e-06 0.000000e+00  1.335037e-05 -6.241048e-06 0.000000e+00  1.735625e-05 -6.466604e-06 0.000000e+00  2.147718e-05 -6.626346e-06 0.000000e+00  2.561928e-05 -6.715000e-06 0.000000e+00  2.978829e-05 -6.730918e-06 0.000000e+00  3.399147e-05 -6.672402e-06 0.000000e+00  3.812965e-05 -6.536496e-06 0.000000e+00  4.210079e-05 -6.322010e-06 0.000000e+00  4.591001e-05 -6.029896e-06 0.000000e+00  4.956381e-05 -5.661149e-06 0.000000e+00  5.296146e-05 -5.217496e-06 0.00000