<?xml version="1.0"?>
<VTKFile type="UnstructuredGrid"  version="0.1"  >
<UnstructuredGrid>
<Piece  NumberOfPoints="16641" NumberOfCells="32768">
<Points>
<DataArray  type="Float32"  NumberOfComponents="3"  format="ascii">0 0 0  0.0078125 0 0  0.015625 0 0  0.0234375 0 0  0.03125 0 0  0.0390625 0 0  0.046875 0 0  0.0546875 0 0  0.0625 0 0  0.0703125 0 0  0.078125 0 0  0.0859375 0 0  0.09375 0 0  0.101562 0 0  0.109375 0 0  0.117188 0 0  0.125 0 0  0.132812 0 0  0.140625 0 0  0.148438 0 0  0.15625 0 0  0.164062 0 0  0.171875 0 0  0.179688 0 0  0.1875 0 0  0.195312 0 0  0.203125 0 0  0.210938 0 0  0.21875 0 0  0.226562 0 0  0.234375 0 0  0.242188 0 0  0.25 0 0  0.257812 0 0  0.265625 0 0  0.273438 0 0  0.28125 0 0  0.289062 0 0  0.296875 0 0  0.304688 0 0  0.3125 0 0  0.320312 0 0  0.328125 0 0  0.335938 0 0  0.34375 0 0  0.351562 0 0  0.359375 0 0  0.367188 0 0  0.375 0 0  0.382812 0 0  0.390625 0 0  0.398438 0 0  0.40625 0 0  0.414062 0 0  0.421875 0 0  0.429688 0 0  0.4375 0 0  0.445312 0 0  0.453125 0 0  0.460938 0 0  0.46875 0 0  0.476562 0 0  0.484375 0 0  0.492188 0 0  0.5 0 0  0.507812 0 0  0.515625 0 0  0.523438 0 0  0.53125 0 0  0.539062 0 0  0.546875 0 0  0.554688 0 0  0.5625 0 0  0.570312 0 0  0.578125 0 0  0.585938 0 0  0.59375 0 0  0.601562 0 0  0.609375 0 0  0.617188 0 0  0.625 0 0  0.632812 0 0  0.640625 0 0  0.648438 0 0  0.65625 0 0  0.664062 0 0  0.671875 0 0  0.679688 0 0  0.6875 0 0  0.695312 0 0  0.703125 0 0  0.710938 0 0  0.71875 0 0  0.726562 0 0  0.734375 0 0  0.742188 0 0  0.75 0 0  0.757812 0 0  0.765625 0 0  0.773438 0 0  0.78125 0 0  0.789062 0 0  0.796875 0 0  0.804688 0 0  0.8125 0 0  0.820312 0 0  0.828125 0 0  0.835938 0 0  0.84375 0 0  0.851562 0 0  0.859375 0 0  0.867188 0 0  0.875 0 0  0.882812 0 0  0.890625 0 0  0.898438 0 0  0.90625 0 0  0.914062 0 0  0.921875 0 0  0.929688 0 0  0.9375 0 0  0.945312 0 0  0.953125 0 0  0.960938 0 0  0.96875 0 0  0.976562 0 0  0.984375 0 0  0.992188 0 0  1 0 0  0 0.0078125 0  0.0078125 0.0078125 0  0.015625 0.0078125 0  0.0234375 0.0078125 0  0.03125 0.0078125 0  0.0390625 0.0078125 0  0.046875 0.0078125 0  0.0546875 0.0078125 0  0.0625 0.0078125 0  0.0703125 0.0078125 0  0.078125 0.0078125 0  0.0859375 0.0078125 0  0.09375 0.0078125 0  0.101562 0.0078125 0  0.109375 0.0078125 0  0.117188 0.0078125 0  0.125 0.0078125 0  0.132812 0.0078125 0  0.140625 0.0078125 0  0.148438 0.0078125 0  0.15625 0.0078125 0  0.164062 0.0078125 0  0.171875 0.0078125 0  0.179688 0.0078125 0  0.1875 0.0078125 0  0.195312 0.0078125 0  0.203125 0.0078125 0  0.210938 0.0078125 0  0.21875 0.0078125 0  0.226562 0.0078125 0  0.234375 0.0078125 0  0.242188 0.0078125 0  0.25 0.0078125 0  0.257812 0.0078125 0  0.265625 0.0078125 0  0.273438 0.0078125 0  0.28125 0.0078125 0  0.289062 0.0078125 0  0.296875 0.0078125 0  0.304688 0.0078125 0  0.3125 0.0078125 0  0.320312 0.0078125 0  0.328125 0.0078125 0  0.335938 0.0078125 0  0.34375 0.0078125 0  0.351562 0.0078125 0  0.359375 0.0078125 0  0.367188 0.0078125 0  0.375 0.0078125 0  0.382812 0.0078125 0  0.390625 0.0078125 0  0.398438 0.0078125 0  0.40625 0.0078125 0  0.414062 0.0078125 0  0.421875 0.0078125 0  0.429688 0.0078125 0  0.4375 0.0078125 0  0.445312 0.0078125 0  0.453125 0.0078125 0  0.460938 0.0078125 0  0.46875 0.0078125 0  0.476562 0.0078125 0  0.484375 0.0078125 0  0.492188 0.0078125 0  0.5 0.0078125 0  0.507812 0.0078125 0  0.515625 0.0078125 0  0.523438 0.0078125 0  0.53125 0.0078125 0  0.539062 0.0078125 0  0.546875 0.0078125 0  0.554688 0.0078125 0  0.5625 0.0078125 0  0.570312 0.0078125 0  0.578125 0.0078125 0  0.585938 0.0078125 0  0.59375 0.0078125 0  0.601562 0.0078125 0  0.609375 0.0078125 0  0.617188 0.0078125 0  0.625 0.0078125 0  0.632812 0.0078125 0  0.640625 0.0078125 0  0.648438 0.0078125 0  0.65625 0.0078125 0  0.664062 0.0078125 0  0.671875 0.0078125 0  0.679688 0.0078125 0  0.6875 0.0078125 0  0.695312 0.0078125 0  0.703125 0.0078125 0  0.710938 0.0078125 0  0.71875 0.0078125 0  0.726562 0.0078125 0  0.734375 0.0078125 0  0.742188 0.0078125 0  0.75 0.0078125 0  0.757812 0.0078125 0  0.765625 0.0078125 0  0.773438 0.0078125 0  0.78125 0.0078125 0  0.789062 0.0078125 0  0.796875 0.0078125 0  0.804688 0.0078125 0  0.8125 0.0078125 0  0.820312 0.0078125 0  0.828125 0.0078125 0  0.835938 0.0078125 0  0.84375 0.0078125 0  0.851562 0.0078125 0  0.859375 0.0078125 0  0.867188 0.0078125 0  0.875 0.0078125 0  0.882812 0.0078125 0  0.890625 0.0078125 0  0.898438 0.0078125 0  0.90625 0.0078125 0  0.914062 0.0078125 0  0.921875 0.0078125 0  0.929688 0.0078125 0  0.9375 0.0078125 0  0.945312 0.0078125 0  0.953125 0.0078125 0  0.960938 0.0078125 0  0.96875 0.0078125 0  0.976562 0.0078125 0  0.984375 0.0078125 0  0.992188 0.0078125 0  1 0.0078125 0  0 0.015625 0  0.0078125 0.015625 0  0.015625 0.015625 0  0.0234375 0.015625 0  0.03125 0.015625 0  0.0390625 0.015625 0  0.046875 0.015625 0  0.0546875 0.015625 0  0.0625 0.015625 0  0.0703125 0.015625 0  0.078125 0.015625 0  0.0859375 0.015625 0  0.09375 0.015625 0  0.101562 0.015625 0  0.109375 0.015625 0  0.117188 0.015625 0  0.125 0.015625 0  0.132812 0.015625 0  0.140625 0.015625 0  0.148438 0.015625 0  0.15625 0.015625 0  0.164062 0.015625 0  0.171875 0.015625 0  0.179688 0.015625 0  0.1875 0.015625 0  0.195312 0.015625 0  0.203125 0.015625 0  0.210938 0.015625 0  0.21875 0.015625 0  0.226562 0.015625 0  0.234375 0.015625 0  0.242188 0.015625 0  0.25 0.015625 0  0.257812 0.015625 0  0.265625 0.015625 0  0.273438 0.015625 0  0.28125 0.015625 0  0.289062 0.015625 0  0.296875 0.015625 0  0.304688 0.015625 0  0.3125 0.015625 0  0.320312 0.015625 0  0.328125 0.015625 0  0.335938 0.015625 0  0.34375 0.015625 0  0.351562 0.015625 0  0.359375 0.015625 0  0.367188 0.015625 0  0.375 0.015625 0  0.382812 0.015625 0  0.390625 0.015625 0  0.398438 0.015625 0  0.40625 0.015625 0  0.414062 0.015625 0  0.421875 0.015625 0  0.429688 0.015625 0  0.4375 0.015625 0  0.445312 0.015625 0  0.453125 0.015625 0  0.460938 0.015625 0  0.46875 0.015625 0  0.476562 0.015625 0  0.484375 0.015625 0  0.492188 0.015625 0  0.5 0.015625 0  0.507812 0.015625 0  0.515625 0.015625 0  0.523438 0.015625 0  0.53125 0.015625 0  0.539062 0.015625 0  0.546875 0.015625 0  0.554688 0.015625 0  0.5625 0.015625 0  0.570312 0.015625 0  0.578125 0.015625 0  0.585938 0.015625 0  0.59375 0.015625 0  0.601562 0.015625 0  0.609375 0.015625 0  0.617188 0.015625 0  0.625 0.015625 0  0.632812 0.015625 0  0.640625 0.015625 0  0.648438 0.015625 0  0.65625 0.015625 0  0.664062 0.015625 0  0.671875 0.015625 0  0.679688 0.015625 0  0.6875 0.015625 0  0.695312 0.015625 0  0.703125 0.015625 0  0.710938 0.015625 0  0.71875 0.015625 0  0.726562 0.015625 0  0.734375 0.015625 0  0.742188 0.015625 0  0.75 0.015625 0  0.757812 0.015625 0  0.765625 0.015625 0  0.773438 0.015625 0  0.78125 0.015625 0  0.789062 0.015625 0  0.796875 0.015625 0  0.804688 0.015625 0  0.8125 0.015625 0  0.820312 0.015625 0  0.828125 0.015625 0  0.835938 0.015625 0  0.84375 0.015625 0  0.851562 0.015625 0  0.859375 0.015625 0  0.867188 0.015625 0  0.875 0.015625 0  0.882812 0.015625 0  0.890625 0.015625 0  0.898438 0.015625 0  0.90625 0.015625 0  0.914062 0.015625 0  0.921875 0.015625 0  0.929688 0.015625 0  0.9375 0.015625 0  0.945312 0.015625 0  0.953125 0.015625 0  0.960938 0.015625 0  0.96875 0.015625 0  0.976562 0.015625 0  0.984375 0.015625 0  0.992188 0.015625 0  1 0.015625 0  0 0.0234375 0  0.0078125 0.0234375 0  0.015625 0.0234375 0  0.0234375 0.0234375 0  0.03125 0.0234375 0  0.0390625 0.0234375 0  0.046875 0.0234375 0  0.0546875 0.0234375 0  0.0625 0.0234375 0  0.0703125 0.0234375 0  0.078125 0.0234375 0  0.0859375 0.0234375 0  0.09375 0.0234375 0  0.101562 0.0234375 0  0.109375 0.0234375 0  0.117188 0.0234375 0  0.125 0.0234375 0  0.132812 0.0234375 0  0.140625 0.0234375 0  0.148438 0.0234375 0  0.15625 0.0234375 0  0.164062 0.0234375 0  0.171875 0.0234375 0  0.179688 0.0234375 0  0.1875 0.0234375 0  0.195312 0.0234375 0  0.203125 0.0234375 0  0.210938 0.0234375 0  0.21875 0.0234375 0  0.226562 0.0234375 0  0.234375 0.0234375 0  0.242188 0.0234375 0  0.25 0.0234375 0  0.257812 0.0234375 0  0.265625 0.0234375 0  0.273438 0.0234375 0  0.28125 0.0234375 0  0.289062 0.0234375 0  0.296875 0.0234375 0  0.304688 0.0234375 0  0.3125 0.0234375 0  0.320312 0.0234375 0  0.328125 0.0234375 0  0.335938 0.0234375 0  0.34375 0.0234375 0  0.351562 0.0234375 0  0.359375 0.0234375 0  0.367188 0.0234375 0  0.375 0.0234375 0  0.382812 0.0234375 0  0.390625 0.0234375 0  0.398438 0.0234375 0  0.40625 0.0234375 0  0.414062 0.0234375 0  0.421875 0.0234375 0  0.429688 0.0234375 0  0.4375 0.0234375 0  0.445312 0.0234375 0  0.453125 0.0234375 0  0.460938 0.0234375 0  0.46875 0.0234375 0  0.476562 0.0234375 0  0.484375 0.0234375 0  0.492188 0.0234375 0  0.5 0.0234375 0  0.507812 0.0234375 0  0.515625 0.0234375 0  0.523438 0.0234375 0  0.53125 0.0234375 0  0.539062 0.0234375 0  0.546875 0.0234375 0  0.554688 0.0234375 0  0.5625 0.0234375 0  0.570312 0.0234375 0  0.578125 0.0234375 0  0.585938 0.0234375 0  0.59375 0.0234375 0  0.601562 0.0234375 0  0.609375 0.0234375 0  0.617188 0.0234375 0  0.625 0.0234375 0  0.632812 0.0234375 0  0.640625 0.0234375 0  0.648438 0.0234375 0  0.65625 0.0234375 0  0.664062 0.0234375 0  0.671875 0.0234375 0  0.679688 0.0234375 0  0.6875 0.0234375 0  0.695312 0.0234375 0  0.703125 0.0234375 0  0.710938 0.0234375 0  0.71875 0.0234375 0  0.726562 0.0234375 0  0.734375 0.0234375 0  0.742188 0.0234375 0  0.75 0.0234375 0  0.757812 0.0234375 0  0.765625 0.0234375 0  0.773438 0.0234375 0  0.78125 0.0234375 0  0.789062 0.0234375 0  0.796875 0.0234375 0  0.804688 0.0234375 0  0.8125 0.0234375 0  0.820312 0.0234375 0  0.828125 0.0234375 0  0.835938 0.0234375 0  0.84375 0.0234375 0  0.851562 0.0234375 0  0.859375 0.0234375 0  0.867188 0.0234375 0  0.875 0.0234375 0  0.882812 0.0234375 0  0.890625 0.0234375 0  0.898438 0.0234375 0  0.90625 0.0234375 0  0.914062 0.0234375 0  0.921875 0.0234375 0  0.929688 0.0234375 0  0.9375 0.0234375 0  0.945312 0.0234
[...]
<PointData  Vectors="u"> 
<DataArray  type="Float32"  Name="u"  NumberOfComponents="3" format="ascii">2.928545e-12 -1.658099e-12 0.000000e+00  1.360694e-12 -4.516132e-13 0.000000e+00  -1.168004e-12 1.603710e-12 0.000000e+00  -3.035888e-12 1.145399e-12 0.000000e+00  -4.003457e-12 -2.176595e-13 0.000000e+00  -3.859831e-12 -2.052428e-12 0.000000e+00  -1.336883e-12 -4.387959e-12 0.000000e+00  4.083413e-12 -7.036962e-12 0.000000e+00  1.267794e-11 -9.852101e-12 0.000000e+00  2.458093e-11 -1.274014e-11 0.000000e+00  3.984464e-11 -1.564752e-11 0.000000e+00  5.846864e-11 -1.854355e-11 0.000000e+00  8.048568e-11 -2.141344e-11 0.000000e+00  1.058117e-10 -2.423347e-11 0.000000e+00  1.343394e-10 -2.698656e-11 0.000000e+00  1.659904e-10 -2.964698e-11 0.000000e+00  2.007774e-10 -3.218429e-11 0.000000e+00  2.386145e-10 -3.455404e-11 0.000000e+00  2.791585e-10 -3.669206e-11 0.000000e+00  3.220434e-10 -3.852298e-11 0.000000e+00  3.670510e-10 -3.996855e-11 0.000000e+00  4.138286e-10 -4.094757e-11 0.000000e+00  4.616565e-10 -4.137192e-11 0.000000e+00  5.097285e-10 -4.115319e-11 0.000000e+00  5.574231e-10 -4.021859e-11 0.000000e+00  6.040365e-10 -3.851795e-11 0.000000e+00  6.485020e-10 -3.601836e-11 0.000000e+00  6.896914e-10 -3.270794e-11 0.000000e+00  7.267900e-10 -2.861234e-11 0.000000e+00  7.590718e-10 -2.379834e-11 0.000000e+00  7.855679e-10 -1.836096e-11 0.000000e+00  8.053635e-10 -1.242052e-11 0.000000e+00  8.180389e-10 -6.129418e-12 0.000000e+00  8.234447e-10 3.362892e-13 0.000000e+00  8.212936e-10 6.795392e-12 0.000000e+00  8.114299e-10 1.306823e-11 0.000000e+00  7.942729e-10 1.898045e-11 0.000000e+00  7.705260e-10 2.437710e-11 0.000000e+00  7.406985e-10 2.913219e-11 0.000000e+00  7.053671e-10 3.314797e-11 0.000000e+00  6.655874e-10 3.636037e-11 0.000000e+00  6.225310e-10 3.874603e-11 0.000000e+00  5.770062e-10 4.031361e-11 0.000000e+00  5.297653e-10 4.109337e-11 0.000000e+00  4.818879e-10 4.114164e-11 0.000000e+00  4.343904e-10 4.053969e-11 0.000000e+00  3.878224e-10 3.937516e-11 0.000000e+00  3.426349e-10 3.773299e-11 0.000000e+00  2.995281e-10 3.570345e-11 0.000000e+00  2.590725e-10 3.337885e-11 0.000000e+00  2.214033e-10 3.083762e-11 0.000000e+00  1.866045e-10 2.814543e-11 0.000000e+00  1.549904e-10 2.536758e-11 0.000000e+00  1.267586e-10 2.256418e-11 0.000000e+00  1.017700e-10 1.977995e-11 0.000000e+00  7.988271e-11 1.705469e-11 0.000000e+00  6.114607e-11 1.443516e-11 0.000000e+00  4.551342e-11 1.196415e-11 0.000000e+00  3.269561e-11 9.672271e-12 0.000000e+00  2.240456e-11 7.593133e-12 0.000000e+00  1.446404e-11 5.770586e-12 0.000000e+00  8.623062e-12 4.240269e-12 0.000000e+00  4.485231e-12 3.022123e-12 0.000000e+00  1.641132e-12 2.138389e-12 0.000000e+00  -2.858921e-13 1.617452e-12 0.000000e+00  -1.696274e-12 1.472505e-12 0.000000e+00  -3.014083e-12 1.696882e-12 0.000000e+00  -4.679005e-12 2.284253e-12 0.000000e+00  -7.157284e-12 3.232012e-12 0.000000e+00  -1.086696e-11 4.522368e-12 0.000000e+00  -1.612266e-11 6.120861e-12 0.000000e+00  -2.325607e-11 7.995673e-12 0.000000e+00  -3.268369e-11 1.012115e-11 0.000000e+00  -4.472019e-11 1.246326e-11 0.000000e+00  -5.947928e-11 1.497832e-11 0.000000e+00  -7.710499e-11 1.762641e-11 0.000000e+00  -9.789238e-11 2.037348e-11 0.000000e+00  -1.220135e-10 2.318080e-11 0.000000e+00  -1.493690e-10 2.600089e-11 0.000000e+00  -1.798883e-10 2.878268e-11 0.000000e+00  -2.136949e-10 3.147343e-11 0.000000e+00  -2.507732e-10 3.401379e-11 0.000000e+00  -2.907616e-10 3.633261e-11 0.000000e+00  -3.332768e-10 3.834781e-11 0.000000e+00  -3.781290e-10 3.997345e-11 0.000000e+00  -4.249787e-10 4.112395e-11 0.000000e+00  -4.730771e-10 4.171032e-11 0.000000e+00  -5.215920e-10 4.164170e-11 0.000000e+00  -5.698991e-10 4.084042e-11 0.000000e+00  -6.172855e-10 3.925266e-11 0.000000e+00  -6.626533e-10 3.684357e-11 0.000000e+00  -7.048398e-10 3.359816e-11 0.000000e+00  -7.430015e-10 2.953796e-11 0.000000e+00  -7.763829e-10 2.472730e-11 0.000000e+00  -8.039776e-10 1.926073e-11 0.000000e+00  -8.248279e-10 1.325820e-11 0.000000e+00  -8.384714e-10 6.872121e-12 0.000000e+00  -8.447240e-10 2.805384e-13 0.000000e+00  -8.432685e-10 -6.331540e-12 0.000000e+00  -8.339159e-10 -1.278036e-11 0.000000e+00  -8.170516e-10 -1.888735e-11 0.000000e+00  -7.933606e-10 -2.449226e-11 0.000000e+00  -7.633496e-10 -2.946284e-11 0.000000e+00  -7.275877e-10 -3.369589e-11 0.000000e+00  -6.871163e-10 -3.712321e-11 0.000000e+00  -6.431116e-10 -3.971731e-11 0.000000e+00  -5.964102e-10 -4.148239e-11 0.000000e+00  -5.477803e-10 -4.244620e-11 0.000000e+00  -4.982934e-10 -4.266528e-11 0.000000e+00  -4.489780e-10 -4.222088e-11 0.000000e+00  -4.004308e-10 -4.119906e-11 0.000000e+00  -3.531263e-10 -3.968485e-11 0.000000e+00  -3.077397e-10 -3.777085e-11 0.000000e+00  -2.648432e-10 -3.554824e-11 0.000000e+00  -2.246377e-10 -3.308822e-11 0.000000e+00  -1.872459e-10 -3.044784e-11 0.000000e+00  -1.529522e-10 -2.768355e-11 0.000000e+00  -1.219780e-10 -2.483898e-11 0.000000e+00  -9.432708e-11 -2.193272e-11 0.000000e+00  -6.998636e-11 -1.897772e-11 0.000000e+00  -4.905095e-11 -1.599828e-11 0.000000e+00  -3.160202e-11 -1.301630e-11 0.000000e+00  -1.763915e-11 -1.004913e-11 0.000000e+00  -7.126550e-12 -7.131228e-12 0.000000e+00  -3.900257e-15 -4.350771e-12 0.000000e+00  3.808762e-12 -1.915880e-12 0.000000e+00  4.800406e-12 8.430056e-14 0.000000e+00  4.526297e-12 1.664459e-12 0.000000e+00  4.840044e-12 2.391021e-12 0.000000e+00  -8.113665e-13 1.470200e-13 0.000000e+00  2.185656e-08 -2.185581e-08 0.000000e+00  6.445281e-08 -2.685348e-08 0.000000e+00  1.006428e-07 -1.775586e-08 0.000000e+00  1.112580e-07 -9.739653e-10 0.000000e+00  8.576871e-08 1.985027e-08 0.000000e+00  1.841726e-08 4.262889e-08 0.000000e+00  -9.355296e-08 6.621866e-08 0.000000e+00  -2.512543e-07 9.003412e-08 0.000000e+00  -4.549443e-07 1.138059e-07 0.000000e+00  -7.044805e-07 1.374357e-07 0.000000e+00  -9.995518e-07 1.609004e-07 0.000000e+00  -1.339780e-06 1.841758e-07 0.000000e+00  -1.728436e-06 2.074962e-07 0.000000e+00  -2.153371e-06 2.298247e-07 0.000000e+00  -2.619948e-06 2.515287e-07 0.000000e+00  -3.137312e-06 2.727673e-07 0.000000e+00  -3.694049e-06 2.924348e-07 0.000000e+00  -4.273628e-06 3.094082e-07 0.000000e+00  -4.881897e-06 3.235160e-07 0.000000e+00  -5.526857e-06 3.343955e-07 0.000000e+00  -6.187745e-06 3.406795e-07 0.000000e+00  -6.839065e-06 3.411410e-07 0.000000e+00  -7.484088e-06 3.355063e-07 0.000000e+00  -8.127535e-06 3.235138e-07 0.000000e+00  -8.740419e-06 3.043343e-07 0.000000e+00  -9.291046e-06 2.775312e-07 0.000000e+00  -9.782591e-06 2.436215e-07 0.000000e+00  -1.022061e-05 2.033261e-07 0.000000e+00  -1.057560e-05 1.572112e-07 0.000000e+00  -1.081874e-05 1.062940e-07 0.000000e+00  -1.096110e-05 5.218261e-08 0.000000e+00  -1.101730e-05 -3.457109e-09 0.000000e+00  -1.096706e-05 -5.899650e-08 0.000000e+00  -1.079316e-05 -1.126769e-07 0.000000e+00  -1.051972e-05 -1.629015e-07 0.000000e+00  -1.017331e-05 -2.084048e-07 0.000000e+00  -9.745002e-06 -2.479569e-07 0.000000e+00  -9.228558e-06 -2.805230e-07 0.000000e+00  -8.656168e-06 -3.058099e-07 0.000000e+00  -8.059317e-06 -3.239818e-07 0.000000e+00  -7.433399e-06 -3.349791e-07 0.000000e+00  -6.774957e-06 -3.388884e-07 0.000000e+00  -6.114156e-06 -3.366226e-07 0.000000e+00  -5.477839e-06 -3.293297e-07 0.000000e+00  -4.858614e-06 -3.175289e-07 0.000000e+00  -4.249837e-06 -3.016616e-07 0.000000e+00  -3.673887e-06 -2.828808e-07 0.000000e+00  -3.149085e-06 -2.623553e-07 0.000000e+00  -2.664273e-06 -2.403933e-07 0.000000e+00  -2.209894e-06 -2.171414e-07 0.000000e+00  -1.800788e-06 -1.934595e-07 0.000000e+00  -1.447932e-06 -1.701907e-07 0.000000e+00  -1.139077e-06 -1.472955e-07 0.000000e+00  -8.644660e-07 -1.246451e-07 0.000000e+00  -6.330926e-07 -1.029348e-07 0.000000e+00  -4.500826e-07 -8.289030e-08 0.000000e+00  -3.039559e-07 -6.436678e-08 0.000000e+00  -1.861015e-07 -4.718782e-08 0.000000e+00  -9.998683e-08 -3.206422e-08 0.000000e+00  -4.503192e-08 -1.971967e-08 0.000000e+00  -1.106803e-08 -9.946450e-09 0.000000e+00  8.919461e-09 -2.482447e-09 0.000000e+00  1.679474e-08 2.062947e-09 0.000000e+00  1.829250e-08 3.127026e-09 0.000000e+00  2.113225e-08 1.137469e-09 0.000000e+00  2.939383e-08 -3.405824e-09 0.000000e+00  4.881456e-08 -1.086329e-08 0.000000e+00  8.850023e-08 -2.153717e-08 0.000000e+00  1.517869e-07 -3.476537e-08 0.000000e+00  2.380069e-07 -4.985738e-08 0.000000e+00  3.549992e-07 -6.700295e-08 0.000000e+00  5.135703e-07 -8.636720e-08 0.000000e+00  7.114797e-07 -1.072284e-07 0.000000e+00  9.425441e-07 -1.288857e-07 0.000000e+00  1.215930e-06 -1.514982e-07 0.000000e+00  1.543507e-06 -1.751855e-07 0.000000e+00  1.917373e-06 -1.992047e-07 0.000000e+00  2.325845e-06 -2.228086e-07 0.000000e+00  2.778750e-06 -2.460033e-07 0.000000e+00  3.287977e-06 -2.686699e-07 0.000000e+00  3.839189e-06 -2.898087e-07 0.000000e+00  4.414079e-06 -3.083839e-07 0.000000e+00  5.020827e-06 -3.240417e-07 0.000000e+00  5.668654e-06 -3.362954e-07 0.000000e+00  6.334884e-06 -3.438882e-07 0.000000e+00  6.992923e-06 -3.456533e-07 0.000000e+00  7.647125e-06 -3.411914e-07 0.000000e+00  8.302568e-06 -3.301527e-07 0.000000e+00  8.929029e-06 -3.117527e-07 0.000000e+00  9.494020e-06 -2.855628e-07 0.000000e+00  1.000088e-05 -2.520099e-07 0.000000e+00  1.045492e-05 -2.117589e-07 0.000000e+00  1.082568e-05 -1.654011e-07 0.000000e+00  1.108366e-05 -1.139707e-07 0.000000e+00  1.123961e-05 -5.905046e-08 0.000000e+00  1.130765e-05 -2.302992e-09 0.000000e+00  1.126687e-05 5.458895e-08 0.000000e+00  1.109971e-05 1.098013e-07 0.000000e+00  1.082997e-05 1.617106e-07 0.000000e+00  1.048380e-05 2.090312e-07 0.000000e+00  1.005216e-05 2.504551e-07 0.000000e+00  9.529152e-06 2.848508e-07 0.000000e+00  8.946796e-06 3.119095e-07 0.000000e+00  8.336130e-06 3.318179e-07 0.000000e+00  7.693087e-06 3.444457e-07 0.000000e+00  7.015316e-06 3.497814e-07 0.000000e+00  6.332644e-06 3.487927e-07 0.000000e+00  5.670891e-06 3.427386e-07 0.000000e+00  5.023792e-06 3.320730e-07 0.000000e+00  4.386686e-06 3.171237e-07 0.000000e+00  3.780835e-06 2.991642e-07 0.000000e+00  3.222346e-06 2.795250e-07 0.000000e+00  2.702058e-06 2.583614e-07 0.000000e+00  2.213772e-06 2.355804e-07 0.000000e+00  1.770327e-06 2.121045e-07 0.000000e+00  1.379478e-06 1.888321e-07 0.000000e+00  1.033099e-06 1.653323e-07 0.000000e+00  7.275431e-07 1.410167e-07 0.000000e+00  4.697661e-07 1.165156e-07 0.000000e+00  2.618282e-07 9.248322e-08 0.000000e+00  9.980933e-08 6.838012e-08 0.000000e+00  -1.601183e-08 4.392727e-08 0.000000e+00  -8.516597e-08 2.036059e-08 0.000000e+00  -1.126593e-07 -7.967417e-10 0.000000e+00  -1.034632e-07 -1.795759e-08 0.000000e+00  -6.592912e-08 -2.715216e-08 0.000000e+00  -2.135054e-08 -2.163888e-08 0.000000e+00  1.076333e-13 -7.210427e-13 0.000000e+00  -1.586255e-12 7.917380e-13 0.000000e+00  2.687522e-08 -6.446646e-08 0.000000e+00  7.036897e-08 -7.033140e-08 0.000000e+00  9.173566e-08 -3.455360e-08 0.000000e+00  6.556041e-08 2.691238e-08 0.000000e+00  -2.447000e-08 1.030065e-07 0.000000e+00  -1.882314e-07 1.868005e-07 0.000000e+00  -4.311034e-07 2.742009e-07 0.000000e+00  -7.556679e-07 3.629090e-07 0.000000e+00  -1.162815e-06 4.517240e-07 0.000000e+00  -1.652471e-06 5.400697e-07 0.000000e+00  -2.223989e-06 6.276581e-07 0.000000e+00  -2.876336e-06 7.142465e-07 0.000000e+00  -3.615645e-06 8.005548e-07 0.000000e+00  -4.416936e-06 8.825725e-07 0.000000e+00  -5.290485e-06 9.616473e-07 0.000000e+00  -6.253638e-06 1.038362e-06 0.000000e+00  -7.283239e-06 1.108576e-06 0.000000e+00  -8.346647e-06 1.168164e-06 0.000000e+00  -9.455505e-06 1.216622e-06 0.000000e+00  -1.062585e-05 1.252741e-06 0.000000e+00  -1.181799e-05 1.271619e-06 0.000000e+00  -1.298383e-05 1.268955e-06 0.000000e+00  -1.413196e-05 1.243969e-06 0.000000e+00  -1.527420e-05 1.195890e-06 0.000000e+00  -1.635724e-05 1.121890e-06 0.000000e+00  -1.732308e-05 1.020607e-06 0.000000e+00  -1.818181e-05 8.940593e-07 0.000000e+00  -1.894803e-05 7.448983e-07 0.000000e+00  -1.956790e-05 5.751924e-07 0.000000e+00  -1.998856e-05 3.886201e-07 0.000000e+00  -2.023398e-05 1.908938e-07 0.000000e+00  -2.033404e-05 -1.216094e-08 0.000000e+00  -2.024979e-05 -2.148658e-07 0.000000e+00  -1.994716e-05 -4.110354e-07 0.000000e+00  -1.947138e-05 -5.950331e-07 0.000000e+00  -1.887160e-05 -7.624031e-07 0.000000e+00  -1.812731e-05 -9.087892e-07 0.000000e+00  -1.722273e-05 -1.030442e-06 0.000000e+00  -1.621646e-05 -1.126176e-06 0.000000e+00  -1.516596e-05 -1.196424e-06 0.000000e+00  -1.405880e-05 -1.240824e-06 0.000000e+00  -1.288509e-05 -1.259507e-06 0.000000e+00  -1.170078e-05 -1.255563e-06 0.000000e+00  -1.055606e-05 -1.232971e-06 0.000000e+00  -9.435199e-06 -1.193466e-06 0.000000e+00  -8.324372e-06 -1.138525e-06 0.000000e+00  -7.266596e-06 -1.072294e-06 0.000000e+00  -6.297486e-06 -9.990307e-07 0.000000e+00  -5.395685e-06 -9.198243e-07 0.000000e+00  -4.543103e-06 -8.352008e-07 0.000000e+00  -3.769174e-06 -7.484306e-07 0.000000e+00  -3.095938e-06 -6.627537e-07 0.000000e+00  -2.500307e-06 -5.780496e-07 0.000000e+00  -1.963999e-06 -4.938683e-07 0.000000e+00  -1.505146e-06 -4.129478e-07 0.000000e+00  -1.134338e-06 -3.381362e-07 0.000000e+00  -8.298570e-07 -2.688873e-07 0.000000e+00  -5.755558e-07 -2.045274e-07 0.000000e+00  -3.787746e-07 -1.478283e-07 0.000000e+00  -2.390053e-07 -1.015906e-07 0.000000e+00  -1.371311e-07 -6.497251e-08 0.000000e+00  -6.021270e-08 -3.693456e-08 0.000000e+00  -5.357108e-09 -1.984576e-08 0.000000e+00  3.783495e-08 -1.587971e-08 0.000000e+00  8.360051e-08 -2.334920e-08 0.000000e+00  1.390905e-07 -4.032012e-08 0.000000e+00  2.147038e-07 -6.823024e-08 0.000000e+00  3.274260e-07 -1.082675e-07 0.000000e+00  4.830450e-07 -1.578554e-07 0.000000e+00  6.795924e-07 -2.143375e-07 0.000000e+00  9.316899e-07 -2.784877e-07 0.000000e+00  1.259757e-06 -3.509373e-07 0.000000e+00  1.658830e-06 -4.288479e-07 0.000000e+00  2.116268e-06 -5.094891e-07 0.000000e+00  2.649270e-06 -5.934620e-07 0.000000e+00  3.280247e-06 -6.811723e-07 0.000000e+00  3.993122e-06 -7.696937e-07 0.000000e+00  4.764465e-06 -8.561355e-07 0.000000e+00  5.612698e-06 -9.405230e-07 0.000000e+00  6.560288e-06 -1.022398e-06 0.000000e+00  7.578840e-06 -1.097998e-06 0.000000e+00  8.632510e-06 -1.163507e-06 0.000000e+00  9.737267e-06 -1.217713e-06 0.000000e+00  1.091143e-05 -1.258921e-06 0.000000e+00  1.211178e-05 -1.282636e-06 0.000000e+00  1.328815e-05 -1.284779e-06 0.000000e+00  1.445116e-05 -1.264088e-06 0.000000e+00  1.561325e-05 -1.219457e-06 0.000000e+00  1.671883e-05 -1.148246e-06 0.000000e+00  1.770842e-05 -1.049136e-06 0.000000e+00  1.859247e-05 -9.238151e-07 0.000000e+00  1.938518e-05 -7.747362e-07 0.000000e+00  2.003101e-05 -6.040791e-07 0.000000e+00  2.047592e-05 -4.155979e-07 0.000000e+00  2.074341e-05 -2.149102e-07 0.000000e+00  2.086254e-05 -7.824643e-09 0.000000e+00  2.079327e-05 1.997799e-07 0.000000e+00  2.050098e-05 4.014812e-07 0.000000e+00  2.003037e-05 5.915622e-07 0.000000e+00  1.942980e-05 7.655133e-07 0.000000e+00  1.867863e-05 9.186996e-07 0.000000e+00  1.776157e-05 1.047020e-06 0.000000e+00  1.673693e-05 1.149251e-06 0.000000e+00  1.566119e-05 1.225927e-06 0.000000e+00  1.452287e-05 1.276416e-06 0.000000e+00  1.331404e-05 1.300472e-06 0.000000e+00  1.208991e-05 1.301394e-06 0.000000e+00  1.089870e-05 1.283570e-06 0.000000e+00  9.726731e-06 1.248456e-06 0.000000e+00  8.563826e-06 1.197075e-06 0.000000e+00  7.450953e-06 1.134013e-06 0.000000e+00  6.419722e-06 1.064107e-06 0.000000e+00  5.452544e-06 9.878335e-07 0.000000e+00  4.537575e-06 9.048164e-07 0.000000e+00  3.700701e-06 8.185777e-07 0.000000e+00  2.958254e-06 7.325528e-07 0.000000e+00  2.294725e-06 6.451813e-07 0.000000e+00  1.702804e-06 5.544165e-07 0.000000e+00  1.196830e-06 4.628648e-07 0.000000e+00  7.818310e-07 3.731483e-07 0.000000e+00  4.492399e-07 2.834007e-07 0.000000e+00  1.979399e-07 1.928326e-07 0.000000e+00  2.943316e-08 1.061967e-07 0.000000e+00  -6.457901e-08 2.888783e-08 0.000000e+00  -9.392353e-08 -3.421001e-08 0.000000e+00  -7.139324e-08 -7.136110e-08 0.000000e+00  -2.616551e-08 -6.497183e-08 0.000000e+00  5.613664e-13 -3.494559e-13 0.000000e+00  -3.726071e-14 -5.502409e-13 0.000000e+00  1.780465e-08 -1.007082e-07 0.000000e+00  3.464940e-08 -9.171408e-08 0.000000e+00  9.004008e-09 -8.908294e-09 0.000000e+00  -8.623907e-08 1.211715e-07 0.000000e+00  -2.693644e-07 2.797471e-07 0.000000e+00  -5.520253e-07 4.543041e-07 0.000000e+00  -9.410551e-07 6.369134e-07 0.000000e+00  -1.439964e-06 8.227913e-07 0.000000e+00  -2.050041e-06 1.009197e-06 0.000000e+00  -2.771135e-06 1.194601e-06 0.000000e+00  -3.602098e-06 1.378063e-06 0.000000e+00  -4.540996e-06 1.558756e-06 0.000000e+00  -5.596546e-06 1.737983e-06 0.000000e+00  -6.730413e-06 1.906932e-06 0.000000e+00  -7.957603e-06 2.068389e-06 0.000000e+00  -9.303068e-06 2.223640e-06 0.000000e+00  -1.073175e-05 2.363919e-06 0.000000e+00  -1.219533e-05 2.480589e-06 0.000000e+00  -1.371131e-05 2.572922e-06 0.000000e+00  -1.530386e-05 2.638809e-06 0.000000e+00  -1.691599e-05 2.668338e-06 0.000000e+00  -1.847938e-05 2.652949e-06 0.000000e+00  -2.000957e-05 2.591635e-06 0.000000e+00  -2.152747e-05 2.483391e-06 0.000000e+00  -2.295942e-05 2.322807e-06 0.000000e+00  -2.422560e-05 2.107459e-06 0.000000e+00  -2.534603e-05 1.841880e-06 0.000000e+00  -2.634725e-05 1.531693e-06 0.000000e+00  -2.715553e-05 1.181060e-06 0.000000e+00  -2.769804e-05 7.973130e-07 0.000000e+00  -2.801309e-05 3.918173e-07 0.000000e+00  -2.814632e-05 -2.402183e-08 0.000000e+00  -2.804151e-05 -4.391847e-07 0.000000e+00  -2.764818e-05 -8.415505e-07 0.000000e+00  -2.703005e-05 -1.220056e-06 0.000000e+00  -2.625540e-05 -1.565973e-06 0.000000e+00  -2.528994e-05 -1.870569e-06 0.000000e+00  -2.410567e-05 -2.126118e-06 0.000000e+00  -2.278282e-05 -2.330027e-06 0.000000e+00  -2.139999e-05 -2.482906e-06 0.000000e+00  -1.993432e-05 -2.583533e-06 0.000000e+00  -1.836717e-05 -2.631619e-06 0.000000e+00  -1.677660e-05 -2.633093e-06 0.000000e+00  -1.523310e-05 -2.595771e-06 0.000000e+00  -1.371184e-05 -2.522735e-06 0.000000e+00  -1.219147e-05 -2.416618e-06 0.000000e+00  -1.073412e-05 -2.285893e-06 0.000000e+00  -9.391673e-06 -2.139381e-06 0.000000e+00  -8.133352e-06 -1.979163e-06 0.000000e+00  -6.933388e-06 -1.806220e-06 0.000000e+00  -5.835500e-06 -1.627608e-06 0.000000e+00  -4.872734e-06 -1.450379e-06 0.000000e+00  -4.012349e-06 -1.274284e-06 0.000000e+00  -3.228610e-06 -1.098385e-06 0.000000e+00  -2.548862e-06 -9.287631e-07 0.000000e+00  -1.989428e-06 -7.717299e-07 0.000000e+00  -1.519478e-06 -6.261090e-07 0.000000e+00  -1.116290e-06 -4.904225e-07 0.000000e+00  -7.914177e-07 -3.707678e-07 0.000000e+00  -5.449851e-07 -2.732885e-07 0.000000e+00  -3.499961e-07 -1.960809e-07 0.000000e+00  -1.885035e-07 -1.368034e-07 0.000000e+00  -5.725590e-08 -1.006442e-07 0.000000e+00  5.792506e-08 -9.237328e-08 0.000000e+00  1.768044e-07 -1.082554e-07 0.000000e+00  3.088052e-07 -1.440316e-07 0.000000e+00  4.681037e-07 -2.029047e-07 0.000000e+00  6.785157e-07 -2.875368e-07 0.000000e+00  9.475514e-07 -3.922862e-07 0.000000e+00  1.271435e-06 -5.113365e-07 0.000000e+00  1.670632e-06 -6.464294e-07 0.000000e+00  2.174085e-06 -7.989712e-07 0.000000e+00  2.773702e-06 -9.626962e-07 0.000000e+00  3.450175e-06 -1.131558e-06 0.000000e+00  4.227713e-06 -1.306831e-06 0.000000e+00  5.138097e-06 -1.489355e-06 0.000000e+00  6.156924e-06 -1.672661e-06 0.000000e+00  7.249062e-06 -1.850387e-06 0.000000e+00  8.440486e-06 -2.022611e-06 0.000000e+00  9.763162e-06 -2.188438e-06 0.000000e+00  1.117504e-05 -2.339861e-06 0.000000e+00  1.262350e-05 -2.468873e-06 0.000000e+00  1.413192e-05 -2.573220e-06 0.000000e+00  1.572761e-05 -2.649732e-06 0.000000e+00  1.734876e-05 -2.689336e-06 0.000000e+00  1.892421e-05 -2.683928e-06 0.000000e+00  2.047220e-05 -2.631471e-06 0.000000e+00  2.201450e-05 -2.530262e-06 0.000000e+00  2.347427e-05 -2.375305e-06 0.000000e+00  2.476969e-05 -2.164300e-06 0.000000e+00  2.592131e-05 -1.901108e-06 0.000000e+00  2.695516e-05 -1.590954e-06 0.000000e+00  2.779531e-05 -1.238265e-06 0.000000e+00  2.836738e-05 -8.505562e-07 0.000000e+00  2.870917e-05 -4.389965e-07 0.000000e+00  2.886531e-05 -1.494807e-08 0.000000e+00  2.877823e-05 4