<?xml version="1.0"?>
<VTKFile type="UnstructuredGrid"  version="0.1"  >
<UnstructuredGrid>
<Piece  NumberOfPoints="16641" NumberOfCells="32768">
<Points>
<DataArray  type="Float32"  NumberOfComponents="3"  format="ascii">0 0 0  0.0078125 0 0  0.015625 0 0  0.0234375 0 0  0.03125 0 0  0.0390625 0 0  0.046875 0 0  0.0546875 0 0  0.0625 0 0  0.0703125 0 0  0.078125 0 0  0.0859375 0 0  0.09375 0 0  0.101562 0 0  0.109375 0 0  0.117188 0 0  0.125 0 0  0.132812 0 0  0.140625 0 0  0.148438 0 0  0.15625 0 0  0.164062 0 0  0.171875 0 0  0.179688 0 0  0.1875 0 0  0.195312 0 0  0.203125 0 0  0.210938 0 0  0.21875 0 0  0.226562 0 0  0.234375 0 0  0.242188 0 0  0.25 0 0  0.257812 0 0  0.265625 0 0  0.273438 0 0  0.28125 0 0  0.289062 0 0  0.296875 0 0  0.304688 0 0  0.3125 0 0  0.320312 0 0  0.328125 0 0  0.335938 0 0  0.34375 0 0  0.351562 0 0  0.359375 0 0  0.367188 0 0  0.375 0 0  0.382812 0 0  0.390625 0 0  0.398438 0 0  0.40625 0 0  0.414062 0 0  0.421875 0 0  0.429688 0 0  0.4375 0 0  0.445312 0 0  0.453125 0 0  0.460938 0 0  0.46875 0 0  0.476562 0 0  0.484375 0 0  0.492188 0 0  0.5 0 0  0.507812 0 0  0.515625 0 0  0.523438 0 0  0.53125 0 0  0.539062 0 0  0.546875 0 0  0.554688 0 0  0.5625 0 0  0.570312 0 0  0.578125 0 0  0.585938 0 0  0.59375 0 0  0.601562 0 0  0.609375 0 0  0.617188 0 0  0.625 0 0  0.632812 0 0  0.640625 0 0  0.648438 0 0  0.65625 0 0  0.664062 0 0  0.671875 0 0  0.679688 0 0  0.6875 0 0  0.695312 0 0  0.703125 0 0  0.710938 0 0  0.71875 0 0  0.726562 0 0  0.734375 0 0  0.742188 0 0  0.75 0 0  0.757812 0 0  0.765625 0 0  0.773438 0 0  0.78125 0 0  0.789062 0 0  0.796875 0 0  0.804688 0 0  0.8125 0 0  0.820312 0 0  0.828125 0 0  0.835938 0 0  0.84375 0 0  0.851562 0 0  0.859375 0 0  0.867188 0 0  0.875 0 0  0.882812 0 0  0.890625 0 0  0.898438 0 0  0.90625 0 0  0.914062 0 0  0.921875 0 0  0.929688 0 0  0.9375 0 0  0.945312 0 0  0.953125 0 0  0.960938 0 0  0.96875 0 0  0.976562 0 0  0.984375 0 0  0.992188 0 0  1 0 0  0 0.0078125 0  0.0078125 0.0078125 0  0.015625 0.0078125 0  0.0234375 0.0078125 0  0.03125 0.0078125 0  0.0390625 0.0078125 0  0.046875 0.0078125 0  0.0546875 0.0078125 0  0.0625 0.0078125 0  0.0703125 0.0078125 0  0.078125 0.0078125 0  0.0859375 0.0078125 0  0.09375 0.0078125 0  0.101562 0.0078125 0  0.109375 0.0078125 0  0.117188 0.0078125 0  0.125 0.0078125 0  0.132812 0.0078125 0  0.140625 0.0078125 0  0.148438 0.0078125 0  0.15625 0.0078125 0  0.164062 0.0078125 0  0.171875 0.0078125 0  0.179688 0.0078125 0  0.1875 0.0078125 0  0.195312 0.0078125 0  0.203125 0.0078125 0  0.210938 0.0078125 0  0.21875 0.0078125 0  0.226562 0.0078125 0  0.234375 0.0078125 0  0.242188 0.0078125 0  0.25 0.0078125 0  0.257812 0.0078125 0  0.265625 0.0078125 0  0.273438 0.0078125 0  0.28125 0.0078125 0  0.289062 0.0078125 0  0.296875 0.0078125 0  0.304688 0.0078125 0  0.3125 0.0078125 0  0.320312 0.0078125 0  0.328125 0.0078125 0  0.335938 0.0078125 0  0.34375 0.0078125 0  0.351562 0.0078125 0  0.359375 0.0078125 0  0.367188 0.0078125 0  0.375 0.0078125 0  0.382812 0.0078125 0  0.390625 0.0078125 0  0.398438 0.0078125 0  0.40625 0.0078125 0  0.414062 0.0078125 0  0.421875 0.0078125 0  0.429688 0.0078125 0  0.4375 0.0078125 0  0.445312 0.0078125 0  0.453125 0.0078125 0  0.460938 0.0078125 0  0.46875 0.0078125 0  0.476562 0.0078125 0  0.484375 0.0078125 0  0.492188 0.0078125 0  0.5 0.0078125 0  0.507812 0.0078125 0  0.515625 0.0078125 0  0.523438 0.0078125 0  0.53125 0.0078125 0  0.539062 0.0078125 0  0.546875 0.0078125 0  0.554688 0.0078125 0  0.5625 0.0078125 0  0.570312 0.0078125 0  0.578125 0.0078125 0  0.585938 0.0078125 0  0.59375 0.0078125 0  0.601562 0.0078125 0  0.609375 0.0078125 0  0.617188 0.0078125 0  0.625 0.0078125 0  0.632812 0.0078125 0  0.640625 0.0078125 0  0.648438 0.0078125 0  0.65625 0.0078125 0  0.664062 0.0078125 0  0.671875 0.0078125 0  0.679688 0.0078125 0  0.6875 0.0078125 0  0.695312 0.0078125 0  0.703125 0.0078125 0  0.710938 0.0078125 0  0.71875 0.0078125 0  0.726562 0.0078125 0  0.734375 0.0078125 0  0.742188 0.0078125 0  0.75 0.0078125 0  0.757812 0.0078125 0  0.765625 0.0078125 0  0.773438 0.0078125 0  0.78125 0.0078125 0  0.789062 0.0078125 0  0.796875 0.0078125 0  0.804688 0.0078125 0  0.8125 0.0078125 0  0.820312 0.0078125 0  0.828125 0.0078125 0  0.835938 0.0078125 0  0.84375 0.0078125 0  0.851562 0.0078125 0  0.859375 0.0078125 0  0.867188 0.0078125 0  0.875 0.0078125 0  0.882812 0.0078125 0  0.890625 0.0078125 0  0.898438 0.0078125 0  0.90625 0.0078125 0  0.914062 0.0078125 0  0.921875 0.0078125 0  0.929688 0.0078125 0  0.9375 0.0078125 0  0.945312 0.0078125 0  0.953125 0.0078125 0  0.960938 0.0078125 0  0.96875 0.0078125 0  0.976562 0.0078125 0  0.984375 0.0078125 0  0.992188 0.0078125 0  1 0.0078125 0  0 0.015625 0  0.0078125 0.015625 0  0.015625 0.015625 0  0.0234375 0.015625 0  0.03125 0.015625 0  0.0390625 0.015625 0  0.046875 0.015625 0  0.0546875 0.015625 0  0.0625 0.015625 0  0.0703125 0.015625 0  0.078125 0.015625 0  0.0859375 0.015625 0  0.09375 0.015625 0  0.101562 0.015625 0  0.109375 0.015625 0  0.117188 0.015625 0  0.125 0.015625 0  0.132812 0.015625 0  0.140625 0.015625 0  0.148438 0.015625 0  0.15625 0.015625 0  0.164062 0.015625 0  0.171875 0.015625 0  0.179688 0.015625 0  0.1875 0.015625 0  0.195312 0.015625 0  0.203125 0.015625 0  0.210938 0.015625 0  0.21875 0.015625 0  0.226562 0.015625 0  0.234375 0.015625 0  0.242188 0.015625 0  0.25 0.015625 0  0.257812 0.015625 0  0.265625 0.015625 0  0.273438 0.015625 0  0.28125 0.015625 0  0.289062 0.015625 0  0.296875 0.015625 0  0.304688 0.015625 0  0.3125 0.015625 0  0.320312 0.015625 0  0.328125 0.015625 0  0.335938 0.015625 0  0.34375 0.015625 0  0.351562 0.015625 0  0.359375 0.015625 0  0.367188 0.015625 0  0.375 0.015625 0  0.382812 0.015625 0  0.390625 0.015625 0  0.398438 0.015625 0  0.40625 0.015625 0  0.414062 0.015625 0  0.421875 0.015625 0  0.429688 0.015625 0  0.4375 0.015625 0  0.445312 0.015625 0  0.453125 0.015625 0  0.460938 0.015625 0  0.46875 0.015625 0  0.476562 0.015625 0  0.484375 0.015625 0  0.492188 0.015625 0  0.5 0.015625 0  0.507812 0.015625 0  0.515625 0.015625 0  0.523438 0.015625 0  0.53125 0.015625 0  0.539062 0.015625 0  0.546875 0.015625 0  0.554688 0.015625 0  0.5625 0.015625 0  0.570312 0.015625 0  0.578125 0.015625 0  0.585938 0.015625 0  0.59375 0.015625 0  0.601562 0.015625 0  0.609375 0.015625 0  0.617188 0.015625 0  0.625 0.015625 0  0.632812 0.015625 0  0.640625 0.015625 0  0.648438 0.015625 0  0.65625 0.015625 0  0.664062 0.015625 0  0.671875 0.015625 0  0.679688 0.015625 0  0.6875 0.015625 0  0.695312 0.015625 0  0.703125 0.015625 0  0.710938 0.015625 0  0.71875 0.015625 0  0.726562 0.015625 0  0.734375 0.015625 0  0.742188 0.015625 0  0.75 0.015625 0  0.757812 0.015625 0  0.765625 0.015625 0  0.773438 0.015625 0  0.78125 0.015625 0  0.789062 0.015625 0  0.796875 0.015625 0  0.804688 0.015625 0  0.8125 0.015625 0  0.820312 0.015625 0  0.828125 0.015625 0  0.835938 0.015625 0  0.84375 0.015625 0  0.851562 0.015625 0  0.859375 0.015625 0  0.867188 0.015625 0  0.875 0.015625 0  0.882812 0.015625 0  0.890625 0.015625 0  0.898438 0.015625 0  0.90625 0.015625 0  0.914062 0.015625 0  0.921875 0.015625 0  0.929688 0.015625 0  0.9375 0.015625 0  0.945312 0.015625 0  0.953125 0.015625 0  0.960938 0.015625 0  0.96875 0.015625 0  0.976562 0.015625 0  0.984375 0.015625 0  0.992188 0.015625 0  1 0.015625 0  0 0.0234375 0  0.0078125 0.0234375 0  0.015625 0.0234375 0  0.0234375 0.0234375 0  0.03125 0.0234375 0  0.0390625 0.0234375 0  0.046875 0.0234375 0  0.0546875 0.0234375 0  0.0625 0.0234375 0  0.0703125 0.0234375 0  0.078125 0.0234375 0  0.0859375 0.0234375 0  0.09375 0.0234375 0  0.101562 0.0234375 0  0.109375 0.0234375 0  0.117188 0.0234375 0  0.125 0.0234375 0  0.132812 0.0234375 0  0.140625 0.0234375 0  0.148438 0.0234375 0  0.15625 0.0234375 0  0.164062 0.0234375 0  0.171875 0.0234375 0  0.179688 0.0234375 0  0.1875 0.0234375 0  0.195312 0.0234375 0  0.203125 0.0234375 0  0.210938 0.0234375 0  0.21875 0.0234375 0  0.226562 0.0234375 0  0.234375 0.0234375 0  0.242188 0.0234375 0  0.25 0.0234375 0  0.257812 0.0234375 0  0.265625 0.0234375 0  0.273438 0.0234375 0  0.28125 0.0234375 0  0.289062 0.0234375 0  0.296875 0.0234375 0  0.304688 0.0234375 0  0.3125 0.0234375 0  0.320312 0.0234375 0  0.328125 0.0234375 0  0.335938 0.0234375 0  0.34375 0.0234375 0  0.351562 0.0234375 0  0.359375 0.0234375 0  0.367188 0.0234375 0  0.375 0.0234375 0  0.382812 0.0234375 0  0.390625 0.0234375 0  0.398438 0.0234375 0  0.40625 0.0234375 0  0.414062 0.0234375 0  0.421875 0.0234375 0  0.429688 0.0234375 0  0.4375 0.0234375 0  0.445312 0.0234375 0  0.453125 0.0234375 0  0.460938 0.0234375 0  0.46875 0.0234375 0  0.476562 0.0234375 0  0.484375 0.0234375 0  0.492188 0.0234375 0  0.5 0.0234375 0  0.507812 0.0234375 0  0.515625 0.0234375 0  0.523438 0.0234375 0  0.53125 0.0234375 0  0.539062 0.0234375 0  0.546875 0.0234375 0  0.554688 0.0234375 0  0.5625 0.0234375 0  0.570312 0.0234375 0  0.578125 0.0234375 0  0.585938 0.0234375 0  0.59375 0.0234375 0  0.601562 0.0234375 0  0.609375 0.0234375 0  0.617188 0.0234375 0  0.625 0.0234375 0  0.632812 0.0234375 0  0.640625 0.0234375 0  0.648438 0.0234375 0  0.65625 0.0234375 0  0.664062 0.0234375 0  0.671875 0.0234375 0  0.679688 0.0234375 0  0.6875 0.0234375 0  0.695312 0.0234375 0  0.703125 0.0234375 0  0.710938 0.0234375 0  0.71875 0.0234375 0  0.726562 0.0234375 0  0.734375 0.0234375 0  0.742188 0.0234375 0  0.75 0.0234375 0  0.757812 0.0234375 0  0.765625 0.0234375 0  0.773438 0.0234375 0  0.78125 0.0234375 0  0.789062 0.0234375 0  0.796875 0.0234375 0  0.804688 0.0234375 0  0.8125 0.0234375 0  0.820312 0.0234375 0  0.828125 0.0234375 0  0.835938 0.0234375 0  0.84375 0.0234375 0  0.851562 0.0234375 0  0.859375 0.0234375 0  0.867188 0.0234375 0  0.875 0.0234375 0  0.882812 0.0234375 0  0.890625 0.0234375 0  0.898438 0.0234375 0  0.90625 0.0234375 0  0.914062 0.0234375 0  0.921875 0.0234375 0  0.929688 0.0234375 0  0.9375 0.0234375 0  0.945312 0.0234
[...]
<PointData  Vectors="u"> 
<DataArray  type="Float32"  Name="u"  NumberOfComponents="3" format="ascii">2.971985e-12 1.167876e-12 0.000000e+00  -1.218991e-12 1.662879e-12 0.000000e+00  2.747546e-12 -6.000514e-12 0.000000e+00  5.320308e-12 -1.365612e-11 0.000000e+00  2.144340e-11 -2.578165e-11 0.000000e+00  5.233393e-11 -3.925691e-11 0.000000e+00  9.951963e-11 -5.252997e-11 0.000000e+00  1.621615e-10 -6.455924e-11 0.000000e+00  2.383786e-10 -7.470913e-11 0.000000e+00  3.257847e-10 -8.267516e-11 0.000000e+00  4.217772e-10 -8.835277e-11 0.000000e+00  5.236873e-10 -9.175317e-11 0.000000e+00  6.290248e-10 -9.296892e-11 0.000000e+00  7.350759e-10 -9.210638e-11 0.000000e+00  8.397332e-10 -8.935076e-11 0.000000e+00  9.408132e-10 -8.487333e-11 0.000000e+00  1.036287e-09 -7.885813e-11 0.000000e+00  1.124591e-09 -7.151702e-11 0.000000e+00  1.204380e-09 -6.305975e-11 0.000000e+00  1.274254e-09 -5.368023e-11 0.000000e+00  1.333095e-09 -4.357826e-11 0.000000e+00  1.380349e-09 -3.296172e-11 0.000000e+00  1.415595e-09 -2.202119e-11 0.000000e+00  1.438265e-09 -1.093245e-11 0.000000e+00  1.448134e-09 1.254596e-13 0.000000e+00  1.445547e-09 1.098409e-11 0.000000e+00  1.430845e-09 2.150178e-11 0.000000e+00  1.404169e-09 3.154402e-11 0.000000e+00  1.366046e-09 4.097417e-11 0.000000e+00  1.317488e-09 4.968171e-11 0.000000e+00  1.259348e-09 5.758735e-11 0.000000e+00  1.192270e-09 6.460976e-11 0.000000e+00  1.117310e-09 7.066637e-11 0.000000e+00  1.035860e-09 7.571084e-11 0.000000e+00  9.490020e-10 7.972725e-11 0.000000e+00  8.576379e-10 8.268999e-11 0.000000e+00  7.630936e-10 8.457349e-11 0.000000e+00  6.668517e-10 8.539166e-11 0.000000e+00  5.699495e-10 8.518330e-11 0.000000e+00  4.733096e-10 8.397319e-11 0.000000e+00  3.782721e-10 8.178807e-11 0.000000e+00  2.861496e-10 7.869039e-11 0.000000e+00  1.977204e-10 7.475847e-11 0.000000e+00  1.137243e-10 7.005615e-11 0.000000e+00  3.529105e-11 6.465173e-11 0.000000e+00  -3.663071e-11 5.863956e-11 0.000000e+00  -1.016589e-10 5.211877e-11 0.000000e+00  -1.593822e-10 4.517715e-11 0.000000e+00  -2.090479e-10 3.790969e-11 0.000000e+00  -2.501838e-10 3.042381e-11 0.000000e+00  -2.828551e-10 2.282019e-11 0.000000e+00  -3.070525e-10 1.519396e-11 0.000000e+00  -3.224953e-10 7.649782e-12 0.000000e+00  -3.292132e-10 2.896871e-13 0.000000e+00  -3.276862e-10 -6.801319e-12 0.000000e+00  -3.183070e-10 -1.353692e-11 0.000000e+00  -3.012821e-10 -1.981985e-11 0.000000e+00  -2.770890e-10 -2.556940e-11 0.000000e+00  -2.465202e-10 -3.072954e-11 0.000000e+00  -2.103012e-10 -3.523669e-11 0.000000e+00  -1.690655e-10 -3.901616e-11 0.000000e+00  -1.236182e-10 -4.202032e-11 0.000000e+00  -7.491342e-11 -4.423028e-11 0.000000e+00  -2.388429e-11 -4.561542e-11 0.000000e+00  2.853350e-11 -4.613527e-11 0.000000e+00  8.137132e-11 -4.578178e-11 0.000000e+00  1.336887e-10 -4.457562e-11 0.000000e+00  1.845066e-10 -4.252460e-11 0.000000e+00  2.327586e-10 -3.962919e-11 0.000000e+00  2.774950e-10 -3.592160e-11 0.000000e+00  3.179624e-10 -3.145879e-11 0.000000e+00  3.533124e-10 -2.628702e-11 0.000000e+00  3.825401e-10 -2.044864e-11 0.000000e+00  4.048906e-10 -1.401098e-11 0.000000e+00  4.199434e-10 -7.058772e-12 0.000000e+00  4.271466e-10 3.287405e-13 0.000000e+00  4.257439e-10 8.072686e-12 0.000000e+00  4.153167e-10 1.608104e-11 0.000000e+00  3.958765e-10 2.425396e-11 0.000000e+00  3.672975e-10 3.249006e-11 0.000000e+00  3.292242e-10 4.068521e-11 0.000000e+00  2.816617e-10 4.873735e-11 0.000000e+00  2.250872e-10 5.654711e-11 0.000000e+00  1.598737e-10 6.400600e-11 0.000000e+00  8.615762e-11 7.100108e-11 0.000000e+00  4.382716e-12 7.743757e-11 0.000000e+00  -8.454619e-11 8.323330e-11 0.000000e+00  -1.797605e-10 8.829056e-11 0.000000e+00  -2.806230e-10 9.250743e-11 0.000000e+00  -3.863152e-10 9.581448e-11 0.000000e+00  -4.956179e-10 9.816259e-11 0.000000e+00  -6.072538e-10 9.948360e-11 0.000000e+00  -7.201701e-10 9.970740e-11 0.000000e+00  -8.333163e-10 9.880634e-11 0.000000e+00  -9.453383e-10 9.677745e-11 0.000000e+00  -1.054721e-09 9.359911e-11 0.000000e+00  -1.160174e-09 8.925191e-11 0.000000e+00  -1.260625e-09 8.376224e-11 0.000000e+00  -1.354814e-09 7.718165e-11 0.000000e+00  -1.441230e-09 6.954764e-11 0.000000e+00  -1.518601e-09 6.090506e-11 0.000000e+00  -1.586087e-09 5.134032e-11 0.000000e+00  -1.642775e-09 4.096123e-11 0.000000e+00  -1.687447e-09 2.987006e-11 0.000000e+00  -1.719155e-09 1.818099e-11 0.000000e+00  -1.737555e-09 6.038010e-12 0.000000e+00  -1.742329e-09 -6.400459e-12 0.000000e+00  -1.732852e-09 -1.897122e-11 0.000000e+00  -1.708806e-09 -3.149681e-11 0.000000e+00  -1.670579e-09 -4.378765e-11 0.000000e+00  -1.618658e-09 -5.564878e-11 0.000000e+00  -1.553269e-09 -6.687086e-11 0.000000e+00  -1.474986e-09 -7.723262e-11 0.000000e+00  -1.385091e-09 -8.652171e-11 0.000000e+00  -1.285004e-09 -9.453008e-11 0.000000e+00  -1.175977e-09 -1.010311e-10 0.000000e+00  -1.059617e-09 -1.057969e-10 0.000000e+00  -9.381405e-10 -1.086312e-10 0.000000e+00  -8.139074e-10 -1.093553e-10 0.000000e+00  -6.892052e-10 -1.077832e-10 0.000000e+00  -5.666050e-10 -1.037589e-10 0.000000e+00  -4.490810e-10 -9.719760e-11 0.000000e+00  -3.396876e-10 -8.808889e-11 0.000000e+00  -2.413916e-10 -7.647837e-11 0.000000e+00  -1.572013e-10 -6.251902e-11 0.000000e+00  -9.025756e-11 -4.682690e-11 0.000000e+00  -4.320387e-11 -3.043005e-11 0.000000e+00  -1.795509e-11 -1.802137e-11 0.000000e+00  -1.335006e-11 -1.796014e-11 0.000000e+00  -4.699423e-12 1.965617e-12 0.000000e+00  5.563907e-08 -5.544723e-08 0.000000e+00  5.353771e-08 2.375875e-08 0.000000e+00  -1.518638e-07 1.526040e-07 0.000000e+00  -6.080682e-07 2.895120e-07 0.000000e+00  -1.314089e-06 4.172719e-07 0.000000e+00  -2.246655e-06 5.281602e-07 0.000000e+00  -3.371601e-06 6.189654e-07 0.000000e+00  -4.650279e-06 6.886713e-07 0.000000e+00  -6.042778e-06 7.374045e-07 0.000000e+00  -7.509748e-06 7.659385e-07 0.000000e+00  -9.013482e-06 7.754343e-07 0.000000e+00  -1.051860e-05 7.672893e-07 0.000000e+00  -1.199628e-05 7.433653e-07 0.000000e+00  -1.340547e-05 7.044333e-07 0.000000e+00  -1.472634e-05 6.528158e-07 0.000000e+00  -1.594675e-05 5.907838e-07 0.000000e+00  -1.703820e-05 5.195293e-07 0.000000e+00  -1.797156e-05 4.403296e-07 0.000000e+00  -1.874481e-05 3.553999e-07 0.000000e+00  -1.936276e-05 2.667978e-07 0.000000e+00  -1.980603e-05 1.756725e-07 0.000000e+00  -2.005527e-05 8.321254e-08 0.000000e+00  -2.012436e-05 -8.762064e-09 0.000000e+00  -2.003244e-05 -9.864224e-08 0.000000e+00  -1.976827e-05 -1.855090e-07 0.000000e+00  -1.932084e-05 -2.684386e-07 0.000000e+00  -1.871624e-05 -3.461664e-07 0.000000e+00  -1.798393e-05 -4.176610e-07 0.000000e+00  -1.711851e-05 -4.823426e-07 0.000000e+00  -1.611493e-05 -5.396457e-07 0.000000e+00  -1.500680e-05 -5.889249e-07 0.000000e+00  -1.382922e-05 -6.297655e-07 0.000000e+00  -1.257984e-05 -6.619601e-07 0.000000e+00  -1.125662e-05 -6.853186e-07 0.000000e+00  -9.895942e-06 -6.997965e-07 0.000000e+00  -8.533787e-06 -7.055581e-07 0.000000e+00  -7.168062e-06 -7.027341e-07 0.000000e+00  -5.796979e-06 -6.914630e-07 0.000000e+00  -4.455216e-06 -6.722173e-07 0.000000e+00  -3.175510e-06 -6.456419e-07 0.000000e+00  -1.953684e-06 -6.121209e-07 0.000000e+00  -7.859550e-07 -5.720265e-07 0.000000e+00  2.982518e-07 -5.262190e-07 0.000000e+00  1.272698e-06 -4.756854e-07 0.000000e+00  2.145169e-06 -4.209455e-07 0.000000e+00  2.922815e-06 -3.624832e-07 0.000000e+00  3.583921e-06 -3.013918e-07 0.000000e+00  4.110813e-06 -2.388427e-07 0.000000e+00  4.515432e-06 -1.753606e-07 0.000000e+00  4.808665e-06 -1.114103e-07 0.000000e+00  4.977725e-06 -4.815843e-08 0.000000e+00  5.014321e-06 1.319732e-08 0.000000e+00  4.934077e-06 7.225329e-08 0.000000e+00  4.750997e-06 1.286859e-07 0.000000e+00  4.461223e-06 1.814023e-07 0.000000e+00  4.065478e-06 2.293208e-07 0.000000e+00  3.581685e-06 2.722644e-07 0.000000e+00  3.025466e-06 3.101493e-07 0.000000e+00  2.400839e-06 3.420777e-07 0.000000e+00  1.716167e-06 3.671964e-07 0.000000e+00  9.895759e-07 3.856288e-07 0.000000e+00  2.361680e-07 3.975951e-07 0.000000e+00  -5.340306e-07 4.024765e-07 0.000000e+00  -1.307128e-06 3.997227e-07 0.000000e+00  -2.067310e-06 3.897905e-07 0.000000e+00  -2.802474e-06 3.732258e-07 0.000000e+00  -3.498948e-06 3.497303e-07 0.000000e+00  -4.139834e-06 3.190859e-07 0.000000e+00  -4.714223e-06 2.820710e-07 0.000000e+00  -5.215489e-06 2.395336e-07 0.000000e+00  -5.628818e-06 1.914905e-07 0.000000e+00  -5.936875e-06 1.380396e-07 0.000000e+00  -6.135985e-06 8.022321e-08 0.000000e+00  -6.227100e-06 1.912199e-08 0.000000e+00  -6.196554e-06 -4.498194e-08 0.000000e+00  -6.028849e-06 -1.117345e-07 0.000000e+00  -5.729233e-06 -1.799302e-07 0.000000e+00  -5.307642e-06 -2.483656e-07 0.000000e+00  -4.753298e-06 -3.165826e-07 0.000000e+00  -4.054183e-06 -3.840681e-07 0.000000e+00  -3.225240e-06 -4.495884e-07 0.000000e+00  -2.285787e-06 -5.119602e-07 0.000000e+00  -1.228858e-06 -5.706676e-07 0.000000e+00  -4.669124e-08 -6.251627e-07 0.000000e+00  1.236475e-06 -6.743414e-07 0.000000e+00  2.592730e-06 -7.172019e-07 0.000000e+00  4.025308e-06 -7.533052e-07 0.000000e+00  5.537964e-06 -7.822035e-07 0.000000e+00  7.098835e-06 -8.030873e-07 0.000000e+00  8.673497e-06 -8.153000e-07 0.000000e+00  1.026258e-05 -8.186115e-07 0.000000e+00  1.186712e-05 -8.128032e-07 0.000000e+00  1.345057e-05 -7.975121e-07 0.000000e+00  1.497527e-05 -7.725720e-07 0.000000e+00  1.644134e-05 -7.380723e-07 0.000000e+00  1.784932e-05 -6.941257e-07 0.000000e+00  1.916195e-05 -6.409333e-07 0.000000e+00  2.034264e-05 -5.789252e-07 0.000000e+00  2.139375e-05 -5.085789e-07 0.000000e+00  2.231821e-05 -4.303933e-07 0.000000e+00  2.308271e-05 -3.451977e-07 0.000000e+00  2.365664e-05 -2.540639e-07 0.000000e+00  2.404770e-05 -1.578661e-07 0.000000e+00  2.426419e-05 -5.748276e-08 0.000000e+00  2.428175e-05 4.563720e-08 0.000000e+00  2.408062e-05 1.498094e-07 0.000000e+00  2.367673e-05 2.538259e-07 0.000000e+00  2.308645e-05 3.565072e-07 0.000000e+00  2.229888e-05 4.558737e-07 0.000000e+00  2.130948e-05 5.497435e-07 0.000000e+00  2.014445e-05 6.367116e-07 0.000000e+00  1.883004e-05 7.154451e-07 0.000000e+00  1.737227e-05 7.836096e-07 0.000000e+00  1.578481e-05 8.387343e-07 0.000000e+00  1.410482e-05 8.794280e-07 0.000000e+00  1.236869e-05 9.044224e-07 0.000000e+00  1.060094e-05 9.113222e-07 0.000000e+00  8.834153e-06 8.977473e-07 0.000000e+00  7.114665e-06 8.627071e-07 0.000000e+00  5.486700e-06 8.054657e-07 0.000000e+00  3.990665e-06 7.244186e-07 0.000000e+00  2.672403e-06 6.187232e-07 0.000000e+00  1.577683e-06 4.899696e-07 0.000000e+00  7.438115e-07 3.419302e-07 0.000000e+00  1.993888e-07 1.826011e-07 0.000000e+00  -5.070273e-08 3.234819e-08 0.000000e+00  -6.049607e-08 -6.063519e-08 0.000000e+00  -1.369997e-11 -1.215407e-11 0.000000e+00  6.641022e-13 -2.657710e-12 0.000000e+00  -2.222327e-08 -5.426460e-08 0.000000e+00  -2.473614e-07 2.499843e-07 0.000000e+00  -8.289176e-07 6.994035e-07 0.000000e+00  -1.824601e-06 1.180917e-06 0.000000e+00  -3.236313e-06 1.636387e-06 0.000000e+00  -5.030961e-06 2.036628e-06 0.000000e+00  -7.155696e-06 2.367706e-06 0.000000e+00  -9.547484e-06 2.623924e-06 0.000000e+00  -1.213891e-05 2.804282e-06 0.000000e+00  -1.486188e-05 2.910586e-06 0.000000e+00  -1.765000e-05 2.946400e-06 0.000000e+00  -2.044014e-05 2.916427e-06 0.000000e+00  -2.318111e-05 2.827241e-06 0.000000e+00  -2.579613e-05 2.681444e-06 0.000000e+00  -2.825020e-05 2.487631e-06 0.000000e+00  -3.052240e-05 2.254237e-06 0.000000e+00  -3.255868e-05 1.985625e-06 0.000000e+00  -3.430356e-05 1.686553e-06 0.000000e+00  -3.575429e-05 1.365415e-06 0.000000e+00  -3.692078e-05 1.029983e-06 0.000000e+00  -3.776535e-05 6.845565e-07 0.000000e+00  -3.825008e-05 3.336508e-07 0.000000e+00  -3.840165e-05 -1.576828e-08 0.000000e+00  -3.825662e-05 -3.575832e-07 0.000000e+00  -3.779210e-05 -6.883257e-07 0.000000e+00  -3.698561e-05 -1.004446e-06 0.000000e+00  -3.588661e-05 -1.301067e-06 0.000000e+00  -3.455099e-05 -1.574254e-06 0.000000e+00  -3.296673e-05 -1.821805e-06 0.000000e+00  -3.112243e-05 -2.041516e-06 0.000000e+00  -2.908179e-05 -2.230867e-06 0.000000e+00  -2.691134e-05 -2.388273e-06 0.000000e+00  -2.460482e-05 -2.512936e-06 0.000000e+00  -2.215661e-05 -2.604075e-06 0.000000e+00  -1.963571e-05 -2.661471e-06 0.000000e+00  -1.711047e-05 -2.685754e-06 0.000000e+00  -1.457525e-05 -2.677407e-06 0.000000e+00  -1.202508e-05 -2.636900e-06 0.000000e+00  -9.525968e-06 -2.566005e-06 0.000000e+00  -7.140234e-06 -2.467193e-06 0.000000e+00  -4.858564e-06 -2.341908e-06 0.000000e+00  -2.672531e-06 -2.191517e-06 0.000000e+00  -6.383772e-07 -2.019289e-06 0.000000e+00  1.193709e-06 -1.829011e-06 0.000000e+00  2.839546e-06 -1.622641e-06 0.000000e+00  4.313565e-06 -1.401975e-06 0.000000e+00  5.573949e-06 -1.171192e-06 0.000000e+00  6.586584e-06 -9.347901e-07 0.000000e+00  7.374789e-06 -6.947419e-07 0.000000e+00  7.959690e-06 -4.527756e-07 0.000000e+00  8.316241e-06 -2.133651e-07 0.000000e+00  8.428003e-06 1.888484e-08 0.000000e+00  8.324901e-06 2.424695e-07 0.000000e+00  8.033582e-06 4.561953e-07 0.000000e+00  7.545846e-06 6.558577e-07 0.000000e+00  6.862292e-06 8.372922e-07 0.000000e+00  6.016855e-06 9.998664e-07 0.000000e+00  5.038901e-06 1.143298e-06 0.000000e+00  3.935153e-06 1.264119e-06 0.000000e+00  2.720717e-06 1.359037e-06 0.000000e+00  1.429619e-06 1.428574e-06 0.000000e+00  8.994282e-08 1.473604e-06 0.000000e+00  -1.280118e-06 1.491719e-06 0.000000e+00  -2.654873e-06 1.480786e-06 0.000000e+00  -4.004910e-06 1.442605e-06 0.000000e+00  -5.308050e-06 1.379292e-06 0.000000e+00  -6.539026e-06 1.289654e-06 0.000000e+00  -7.666258e-06 1.172835e-06 0.000000e+00  -8.669799e-06 1.031866e-06 0.000000e+00  -9.537977e-06 8.700070e-07 0.000000e+00  -1.024311e-05 6.872679e-07 0.000000e+00  -1.075255e-05 4.840032e-07 0.000000e+00  -1.106011e-05 2.642504e-07 0.000000e+00  -1.116855e-05 3.215185e-08 0.000000e+00  -1.105203e-05 -2.112744e-07 0.000000e+00  -1.068105e-05 -4.646917e-07 0.000000e+00  -1.006636e-05 -7.234431e-07 0.000000e+00  -9.227665e-06 -9.829295e-07 0.000000e+00  -8.144251e-06 -1.241463e-06 0.000000e+00  -6.792846e-06 -1.497099e-06 0.000000e+00  -5.202467e-06 -1.745080e-06 0.000000e+00  -3.410494e-06 -1.980897e-06 0.000000e+00  -1.403026e-06 -2.202647e-06 0.000000e+00  8.355249e-07 -2.408248e-06 0.000000e+00  3.258676e-06 -2.593451e-06 0.000000e+00  5.812951e-06 -2.754457e-06 0.000000e+00  8.505575e-06 -2.889654e-06 0.000000e+00  1.134492e-05 -2.997345e-06 0.000000e+00  1.427023e-05 -3.074419e-06 0.000000e+00  1.721591e-05 -3.118410e-06 0.000000e+00  2.018460e-05 -3.128503e-06 0.000000e+00  2.317985e-05 -3.103873e-06 0.000000e+00  2.613220e-05 -3.043129e-06 0.000000e+00  2.897013e-05 -2.945689e-06 0.000000e+00  3.169558e-05 -2.811953e-06 0.000000e+00  3.431138e-05 -2.642357e-06 0.000000e+00  3.674684e-05 -2.437674e-06 0.000000e+00  3.893264e-05 -2.199606e-06 0.000000e+00  4.087511e-05 -1.930021e-06 0.000000e+00  4.258160e-05 -1.630821e-06 0.000000e+00  4.398904e-05 -1.305184e-06 0.000000e+00  4.503938e-05 -9.572557e-07 0.000000e+00  4.574906e-05 -5.903955e-07 0.000000e+00  4.613546e-05 -2.079378e-07 0.000000e+00  4.615231e-05 1.845772e-07 0.000000e+00  4.576200e-05 5.806902e-07 0.000000e+00  4.499621e-05 9.758088e-07 0.000000e+00  4.388724e-05 1.365478e-06 0.000000e+00  4.241393e-05 1.742163e-06 0.000000e+00  4.056700e-05 2.097564e-06 0.000000e+00  3.839694e-05 2.426413e-06 0.000000e+00  3.595394e-05 2.723736e-06 0.000000e+00  3.324807e-05 2.980731e-06 0.000000e+00  3.030351e-05 3.188150e-06 0.000000e+00  2.719010e-05 3.340950e-06 0.000000e+00  2.397578e-05 3.434588e-06 0.000000e+00  2.070372e-05 3.460314e-06 0.000000e+00  1.743141e-05 3.409653e-06 0.000000e+00  1.424315e-05 3.279607e-06 0.000000e+00  1.121817e-05 3.068314e-06 0.000000e+00  8.424797e-06 2.771000e-06 0.000000e+00  5.939321e-06 2.386340e-06 0.000000e+00  3.837850e-06 1.922583e-06 0.000000e+00  2.178553e-06 1.396034e-06 0.000000e+00  1.000686e-06 8.368718e-07 0.000000e+00  3.083860e-07 3.111510e-07 0.000000e+00  3.183321e-08 -5.048622e-08 0.000000e+00  -1.350028e-11 -1.609638e-11 0.000000e+00  4.190316e-12 -3.976709e-12 0.000000e+00  -1.496763e-07 1.480693e-07 0.000000e+00  -6.948898e-07 8.312810e-07 0.000000e+00  -1.742612e-06 1.745815e-06 0.000000e+00  -3.333160e-06 2.714104e-06 0.000000e+00  -5.459458e-06 3.633864e-06 0.000000e+00  -8.078613e-06 4.447908e-06 0.000000e+00  -1.112469e-05 5.125820e-06 0.000000e+00  -1.451795e-05 5.653298e-06 0.000000e+00  -1.817158e-05 6.025977e-06 0.000000e+00  -2.199652e-05 6.245800e-06 0.000000e+00  -2.590475e-05 6.318844e-06 0.000000e+00  -2.981170e-05 6.253958e-06 0.000000e+00  -3.364941e-05 6.064293e-06 0.000000e+00  -3.730998e-05 5.754650e-06 0.000000e+00  -4.074752e-05 5.342903e-06 0.000000e+00  -4.393539e-05 4.846749e-06 0.000000e+00  -4.679688e-05 4.275166e-06 0.000000e+00  -4.925277e-05 3.638056e-06 0.000000e+00  -5.130092e-05 2.953276e-06 0.000000e+00  -5.295694e-05 2.237403e-06 0.000000e+00  -5.416593e-05 1.499508e-06 0.000000e+00  -5.487243e-05 7.491649e-07 0.000000e+00  -5.511513e-05 1.331249e-09 0.000000e+00  -5.494669e-05 -7.308504e-07 0.000000e+00  -5.433250e-05 -1.439987e-06 0.000000e+00  -5.323836e-05 -2.118475e-06 0.000000e+00  -5.173492e-05 -2.755780e-06 0.000000e+00  -4.990197e-05 -3.343407e-06 0.000000e+00  -4.771999e-05 -3.876624e-06 0.000000e+00  -4.517025e-05 -4.350655e-06 0.000000e+00  -4.234357e-05 -4.760020e-06 0.000000e+00  -3.933477e-05 -5.101266e-06 0.000000e+00  -3.613246e-05 -5.372641e-06 0.000000e+00  -3.272620e-05 -5.572393e-06 0.000000e+00  -2.921440e-05 -5.700001e-06 0.000000e+00  -2.569457e-05 -5.756784e-06 0.000000e+00  -2.215637e-05 -5.743722e-06 0.000000e+00  -1.859056e-05 -5.661737e-06 0.000000e+00  -1.509150e-05 -5.514606e-06 0.000000e+00  -1.174829e-05 -5.307637e-06 0.000000e+00  -8.545731e-06 -5.043863e-06 0.000000e+00  -5.470058e-06 -4.726121e-06 0.000000e+00  -2.601991e-06 -4.361439e-06 0.000000e+00  -1.360642e-08 -3.957984e-06 0.000000e+00  2.319108e-06 -3.519883e-06 0.000000e+00  4.417954e-06 -3.050895e-06 0.000000e+00  6.222492e-06 -2.560032e-06 0.000000e+00  7.683319e-06 -2.057019e-06 0.000000e+00  8.834610e-06 -1.546006e-06 0.000000e+00  9.707148e-06 -1.030604e-06 0.000000e+00  1.026417e-05 -5.204877e-07 0.000000e+00  1.048128e-05 -2.563085e-08 0.000000e+00  1.040153e-05 4.508278e-07 0.000000e+00  1.006304e-05 9.064298e-07 0.000000e+00  9.452901e-06 1.332059e-06 0.000000e+00  8.570905e-06 1.718673e-06 0.000000e+00  7.465334e-06 2.065016e-06 0.000000e+00  6.177674e-06 2.370591e-06 0.000000e+00  4.716263e-06 2.627848e-06 0.000000e+00  3.101579e-06 2.829618e-06 0.000000e+00  1.381610e-06 2.977129e-06 0.000000e+00  -4.043886e-07 3.072372e-06 0.000000e+00  -2.231641e-06 3.110068e-06 0.000000e+00  -4.064457e-06 3.085538e-06 0.000000e+00  -5.861744e-06 3.002763e-06 0.000000e+00  -7.592957e-06 2.866397e-06 0.000000e+00  -9.223017e-06 2.673777e-06 0.000000e+00  -1.070760e-05 2.422964e-06 0.000000e+00  -1.201929e-05 2.120583e-06 0.000000e+00  -1.314269e-05 1.773748e-06 0.000000e+00  -1.403896e-05 1.382374e-06 0.000000e+00  -1.466184e-05 9.471312e-07 0.000000e+00  -1.500366e-05 4.767995e-07 0.000000e+00  -1.506958e-05 -1.962761e-08 0.000000e+00  -1.482295e-05 -5.400648e-07 0.000000e+00  -1.422157e-05 -1.081730e-06 0.000000e+00  -1.328179e-05 -1.634526e-06 0.000000e+00  -1.203290e-05 -2.188499e-06 0.000000e+00  -1.044498e-05 -2.740125e-06 0.000000e+00  -8.484184e-06 -3.285311e-06 0.000000e+00  -6.192773e-06 -3.813769e-06 0.000000e+00  -3.624991e-06 -4.315768e-06 0.000000e+00  -7.600631e-07 -4.787317e-06 0.000000e+00  2.425447e-06 -5.224031e-06 0.000000e+00  5.864626e-06 -5.616741e-06 0.000000e+00  9.480566e-06 -5.957272e-06 0.000000e+00  1.328509e-05 -6.242265e-06 0.000000e+00  1.729187e-05 -6.468152e-06 0.000000e+00  2.141392e-05 -6.628243e-06 0.000000e+00  2.555736e-05 -6.717261e-06 0.000000e+00  2.972797e-05 -6.733556e-06 0.000000e+00  3.393299e-05 -6.675423e-06 0.000000e+00  3.807324e-05 -6.539901e-06 0.000000e+00  4.204671e-05 -6.325792e-06 0.000000e+00  4.585849e-05 -6.034040e-06 0.000000e+00  4.951507e-05 -5.665633e-06 0.000000e+00  5.291571e-05 -5.222287e-06 0.00000