<?xml version="1.0"?>
<VTKFile type="UnstructuredGrid"  version="0.1"  >
<UnstructuredGrid>
<Piece  NumberOfPoints="16641" NumberOfCells="32768">
<Points>
<DataArray  type="Float32"  NumberOfComponents="3"  format="ascii">0 0 0  0.0078125 0 0  0.015625 0 0  0.0234375 0 0  0.03125 0 0  0.0390625 0 0  0.046875 0 0  0.0546875 0 0  0.0625 0 0  0.0703125 0 0  0.078125 0 0  0.0859375 0 0  0.09375 0 0  0.101562 0 0  0.109375 0 0  0.117188 0 0  0.125 0 0  0.132812 0 0  0.140625 0 0  0.148438 0 0  0.15625 0 0  0.164062 0 0  0.171875 0 0  0.179688 0 0  0.1875 0 0  0.195312 0 0  0.203125 0 0  0.210938 0 0  0.21875 0 0  0.226562 0 0  0.234375 0 0  0.242188 0 0  0.25 0 0  0.257812 0 0  0.265625 0 0  0.273438 0 0  0.28125 0 0  0.289062 0 0  0.296875 0 0  0.304688 0 0  0.3125 0 0  0.320312 0 0  0.328125 0 0  0.335938 0 0  0.34375 0 0  0.351562 0 0  0.359375 0 0  0.367188 0 0  0.375 0 0  0.382812 0 0  0.390625 0 0  0.398438 0 0  0.40625 0 0  0.414062 0 0  0.421875 0 0  0.429688 0 0  0.4375 0 0  0.445312 0 0  0.453125 0 0  0.460938 0 0  0.46875 0 0  0.476562 0 0  0.484375 0 0  0.492188 0 0  0.5 0 0  0.507812 0 0  0.515625 0 0  0.523438 0 0  0.53125 0 0  0.539062 0 0  0.546875 0 0  0.554688 0 0  0.5625 0 0  0.570312 0 0  0.578125 0 0  0.585938 0 0  0.59375 0 0  0.601562 0 0  0.609375 0 0  0.617188 0 0  0.625 0 0  0.632812 0 0  0.640625 0 0  0.648438 0 0  0.65625 0 0  0.664062 0 0  0.671875 0 0  0.679688 0 0  0.6875 0 0  0.695312 0 0  0.703125 0 0  0.710938 0 0  0.71875 0 0  0.726562 0 0  0.734375 0 0  0.742188 0 0  0.75 0 0  0.757812 0 0  0.765625 0 0  0.773438 0 0  0.78125 0 0  0.789062 0 0  0.796875 0 0  0.804688 0 0  0.8125 0 0  0.820312 0 0  0.828125 0 0  0.835938 0 0  0.84375 0 0  0.851562 0 0  0.859375 0 0  0.867188 0 0  0.875 0 0  0.882812 0 0  0.890625 0 0  0.898438 0 0  0.90625 0 0  0.914062 0 0  0.921875 0 0  0.929688 0 0  0.9375 0 0  0.945312 0 0  0.953125 0 0  0.960938 0 0  0.96875 0 0  0.976562 0 0  0.984375 0 0  0.992188 0 0  1 0 0  0 0.0078125 0  0.0078125 0.0078125 0  0.015625 0.0078125 0  0.0234375 0.0078125 0  0.03125 0.0078125 0  0.0390625 0.0078125 0  0.046875 0.0078125 0  0.0546875 0.0078125 0  0.0625 0.0078125 0  0.0703125 0.0078125 0  0.078125 0.0078125 0  0.0859375 0.0078125 0  0.09375 0.0078125 0  0.101562 0.0078125 0  0.109375 0.0078125 0  0.117188 0.0078125 0  0.125 0.0078125 0  0.132812 0.0078125 0  0.140625 0.0078125 0  0.148438 0.0078125 0  0.15625 0.0078125 0  0.164062 0.0078125 0  0.171875 0.0078125 0  0.179688 0.0078125 0  0.1875 0.0078125 0  0.195312 0.0078125 0  0.203125 0.0078125 0  0.210938 0.0078125 0  0.21875 0.0078125 0  0.226562 0.0078125 0  0.234375 0.0078125 0  0.242188 0.0078125 0  0.25 0.0078125 0  0.257812 0.0078125 0  0.265625 0.0078125 0  0.273438 0.0078125 0  0.28125 0.0078125 0  0.289062 0.0078125 0  0.296875 0.0078125 0  0.304688 0.0078125 0  0.3125 0.0078125 0  0.320312 0.0078125 0  0.328125 0.0078125 0  0.335938 0.0078125 0  0.34375 0.0078125 0  0.351562 0.0078125 0  0.359375 0.0078125 0  0.367188 0.0078125 0  0.375 0.0078125 0  0.382812 0.0078125 0  0.390625 0.0078125 0  0.398438 0.0078125 0  0.40625 0.0078125 0  0.414062 0.0078125 0  0.421875 0.0078125 0  0.429688 0.0078125 0  0.4375 0.0078125 0  0.445312 0.0078125 0  0.453125 0.0078125 0  0.460938 0.0078125 0  0.46875 0.0078125 0  0.476562 0.0078125 0  0.484375 0.0078125 0  0.492188 0.0078125 0  0.5 0.0078125 0  0.507812 0.0078125 0  0.515625 0.0078125 0  0.523438 0.0078125 0  0.53125 0.0078125 0  0.539062 0.0078125 0  0.546875 0.0078125 0  0.554688 0.0078125 0  0.5625 0.0078125 0  0.570312 0.0078125 0  0.578125 0.0078125 0  0.585938 0.0078125 0  0.59375 0.0078125 0  0.601562 0.0078125 0  0.609375 0.0078125 0  0.617188 0.0078125 0  0.625 0.0078125 0  0.632812 0.0078125 0  0.640625 0.0078125 0  0.648438 0.0078125 0  0.65625 0.0078125 0  0.664062 0.0078125 0  0.671875 0.0078125 0  0.679688 0.0078125 0  0.6875 0.0078125 0  0.695312 0.0078125 0  0.703125 0.0078125 0  0.710938 0.0078125 0  0.71875 0.0078125 0  0.726562 0.0078125 0  0.734375 0.0078125 0  0.742188 0.0078125 0  0.75 0.0078125 0  0.757812 0.0078125 0  0.765625 0.0078125 0  0.773438 0.0078125 0  0.78125 0.0078125 0  0.789062 0.0078125 0  0.796875 0.0078125 0  0.804688 0.0078125 0  0.8125 0.0078125 0  0.820312 0.0078125 0  0.828125 0.0078125 0  0.835938 0.0078125 0  0.84375 0.0078125 0  0.851562 0.0078125 0  0.859375 0.0078125 0  0.867188 0.0078125 0  0.875 0.0078125 0  0.882812 0.0078125 0  0.890625 0.0078125 0  0.898438 0.0078125 0  0.90625 0.0078125 0  0.914062 0.0078125 0  0.921875 0.0078125 0  0.929688 0.0078125 0  0.9375 0.0078125 0  0.945312 0.0078125 0  0.953125 0.0078125 0  0.960938 0.0078125 0  0.96875 0.0078125 0  0.976562 0.0078125 0  0.984375 0.0078125 0  0.992188 0.0078125 0  1 0.0078125 0  0 0.015625 0  0.0078125 0.015625 0  0.015625 0.015625 0  0.0234375 0.015625 0  0.03125 0.015625 0  0.0390625 0.015625 0  0.046875 0.015625 0  0.0546875 0.015625 0  0.0625 0.015625 0  0.0703125 0.015625 0  0.078125 0.015625 0  0.0859375 0.015625 0  0.09375 0.015625 0  0.101562 0.015625 0  0.109375 0.015625 0  0.117188 0.015625 0  0.125 0.015625 0  0.132812 0.015625 0  0.140625 0.015625 0  0.148438 0.015625 0  0.15625 0.015625 0  0.164062 0.015625 0  0.171875 0.015625 0  0.179688 0.015625 0  0.1875 0.015625 0  0.195312 0.015625 0  0.203125 0.015625 0  0.210938 0.015625 0  0.21875 0.015625 0  0.226562 0.015625 0  0.234375 0.015625 0  0.242188 0.015625 0  0.25 0.015625 0  0.257812 0.015625 0  0.265625 0.015625 0  0.273438 0.015625 0  0.28125 0.015625 0  0.289062 0.015625 0  0.296875 0.015625 0  0.304688 0.015625 0  0.3125 0.015625 0  0.320312 0.015625 0  0.328125 0.015625 0  0.335938 0.015625 0  0.34375 0.015625 0  0.351562 0.015625 0  0.359375 0.015625 0  0.367188 0.015625 0  0.375 0.015625 0  0.382812 0.015625 0  0.390625 0.015625 0  0.398438 0.015625 0  0.40625 0.015625 0  0.414062 0.015625 0  0.421875 0.015625 0  0.429688 0.015625 0  0.4375 0.015625 0  0.445312 0.015625 0  0.453125 0.015625 0  0.460938 0.015625 0  0.46875 0.015625 0  0.476562 0.015625 0  0.484375 0.015625 0  0.492188 0.015625 0  0.5 0.015625 0  0.507812 0.015625 0  0.515625 0.015625 0  0.523438 0.015625 0  0.53125 0.015625 0  0.539062 0.015625 0  0.546875 0.015625 0  0.554688 0.015625 0  0.5625 0.015625 0  0.570312 0.015625 0  0.578125 0.015625 0  0.585938 0.015625 0  0.59375 0.015625 0  0.601562 0.015625 0  0.609375 0.015625 0  0.617188 0.015625 0  0.625 0.015625 0  0.632812 0.015625 0  0.640625 0.015625 0  0.648438 0.015625 0  0.65625 0.015625 0  0.664062 0.015625 0  0.671875 0.015625 0  0.679688 0.015625 0  0.6875 0.015625 0  0.695312 0.015625 0  0.703125 0.015625 0  0.710938 0.015625 0  0.71875 0.015625 0  0.726562 0.015625 0  0.734375 0.015625 0  0.742188 0.015625 0  0.75 0.015625 0  0.757812 0.015625 0  0.765625 0.015625 0  0.773438 0.015625 0  0.78125 0.015625 0  0.789062 0.015625 0  0.796875 0.015625 0  0.804688 0.015625 0  0.8125 0.015625 0  0.820312 0.015625 0  0.828125 0.015625 0  0.835938 0.015625 0  0.84375 0.015625 0  0.851562 0.015625 0  0.859375 0.015625 0  0.867188 0.015625 0  0.875 0.015625 0  0.882812 0.015625 0  0.890625 0.015625 0  0.898438 0.015625 0  0.90625 0.015625 0  0.914062 0.015625 0  0.921875 0.015625 0  0.929688 0.015625 0  0.9375 0.015625 0  0.945312 0.015625 0  0.953125 0.015625 0  0.960938 0.015625 0  0.96875 0.015625 0  0.976562 0.015625 0  0.984375 0.015625 0  0.992188 0.015625 0  1 0.015625 0  0 0.0234375 0  0.0078125 0.0234375 0  0.015625 0.0234375 0  0.0234375 0.0234375 0  0.03125 0.0234375 0  0.0390625 0.0234375 0  0.046875 0.0234375 0  0.0546875 0.0234375 0  0.0625 0.0234375 0  0.0703125 0.0234375 0  0.078125 0.0234375 0  0.0859375 0.0234375 0  0.09375 0.0234375 0  0.101562 0.0234375 0  0.109375 0.0234375 0  0.117188 0.0234375 0  0.125 0.0234375 0  0.132812 0.0234375 0  0.140625 0.0234375 0  0.148438 0.0234375 0  0.15625 0.0234375 0  0.164062 0.0234375 0  0.171875 0.0234375 0  0.179688 0.0234375 0  0.1875 0.0234375 0  0.195312 0.0234375 0  0.203125 0.0234375 0  0.210938 0.0234375 0  0.21875 0.0234375 0  0.226562 0.0234375 0  0.234375 0.0234375 0  0.242188 0.0234375 0  0.25 0.0234375 0  0.257812 0.0234375 0  0.265625 0.0234375 0  0.273438 0.0234375 0  0.28125 0.0234375 0  0.289062 0.0234375 0  0.296875 0.0234375 0  0.304688 0.0234375 0  0.3125 0.0234375 0  0.320312 0.0234375 0  0.328125 0.0234375 0  0.335938 0.0234375 0  0.34375 0.0234375 0  0.351562 0.0234375 0  0.359375 0.0234375 0  0.367188 0.0234375 0  0.375 0.0234375 0  0.382812 0.0234375 0  0.390625 0.0234375 0  0.398438 0.0234375 0  0.40625 0.0234375 0  0.414062 0.0234375 0  0.421875 0.0234375 0  0.429688 0.0234375 0  0.4375 0.0234375 0  0.445312 0.0234375 0  0.453125 0.0234375 0  0.460938 0.0234375 0  0.46875 0.0234375 0  0.476562 0.0234375 0  0.484375 0.0234375 0  0.492188 0.0234375 0  0.5 0.0234375 0  0.507812 0.0234375 0  0.515625 0.0234375 0  0.523438 0.0234375 0  0.53125 0.0234375 0  0.539062 0.0234375 0  0.546875 0.0234375 0  0.554688 0.0234375 0  0.5625 0.0234375 0  0.570312 0.0234375 0  0.578125 0.0234375 0  0.585938 0.0234375 0  0.59375 0.0234375 0  0.601562 0.0234375 0  0.609375 0.0234375 0  0.617188 0.0234375 0  0.625 0.0234375 0  0.632812 0.0234375 0  0.640625 0.0234375 0  0.648438 0.0234375 0  0.65625 0.0234375 0  0.664062 0.0234375 0  0.671875 0.0234375 0  0.679688 0.0234375 0  0.6875 0.0234375 0  0.695312 0.0234375 0  0.703125 0.0234375 0  0.710938 0.0234375 0  0.71875 0.0234375 0  0.726562 0.0234375 0  0.734375 0.0234375 0  0.742188 0.0234375 0  0.75 0.0234375 0  0.757812 0.0234375 0  0.765625 0.0234375 0  0.773438 0.0234375 0  0.78125 0.0234375 0  0.789062 0.0234375 0  0.796875 0.0234375 0  0.804688 0.0234375 0  0.8125 0.0234375 0  0.820312 0.0234375 0  0.828125 0.0234375 0  0.835938 0.0234375 0  0.84375 0.0234375 0  0.851562 0.0234375 0  0.859375 0.0234375 0  0.867188 0.0234375 0  0.875 0.0234375 0  0.882812 0.0234375 0  0.890625 0.0234375 0  0.898438 0.0234375 0  0.90625 0.0234375 0  0.914062 0.0234375 0  0.921875 0.0234375 0  0.929688 0.0234375 0  0.9375 0.0234375 0  0.945312 0.0234
[...]
<PointData  Vectors="u"> 
<DataArray  type="Float32"  Name="u"  NumberOfComponents="3" format="ascii">2.977053e-12 1.163021e-12 0.000000e+00  -1.214612e-12 1.660512e-12 0.000000e+00  2.743466e-12 -5.992543e-12 0.000000e+00  5.310410e-12 -1.364385e-11 0.000000e+00  2.142022e-11 -2.576396e-11 0.000000e+00  5.228951e-11 -3.923391e-11 0.000000e+00  9.944788e-11 -5.250291e-11 0.000000e+00  1.620581e-10 -6.452963e-11 0.000000e+00  2.382410e-10 -7.467854e-11 0.000000e+00  3.256121e-10 -8.264507e-11 0.000000e+00  4.215706e-10 -8.832455e-11 0.000000e+00  5.234491e-10 -9.172802e-11 0.000000e+00  6.287589e-10 -9.294792e-11 0.000000e+00  7.347872e-10 -9.209041e-11 0.000000e+00  8.394275e-10 -8.934053e-11 0.000000e+00  9.404972e-10 -8.486938e-11 0.000000e+00  1.035968e-09 -7.886081e-11 0.000000e+00  1.124277e-09 -7.152647e-11 0.000000e+00  1.204078e-09 -6.307591e-11 0.000000e+00  1.273972e-09 -5.370286e-11 0.000000e+00  1.332840e-09 -4.360690e-11 0.000000e+00  1.380128e-09 -3.299572e-11 0.000000e+00  1.415414e-09 -2.205976e-11 0.000000e+00  1.438128e-09 -1.097462e-11 0.000000e+00  1.448046e-09 8.078700e-14 0.000000e+00  1.445510e-09 1.093809e-11 0.000000e+00  1.430860e-09 2.145571e-11 0.000000e+00  1.404237e-09 3.149914e-11 0.000000e+00  1.366165e-09 4.093174e-11 0.000000e+00  1.317653e-09 4.964295e-11 0.000000e+00  1.259557e-09 5.755337e-11 0.000000e+00  1.192517e-09 6.458158e-11 0.000000e+00  1.117587e-09 7.064487e-11 0.000000e+00  1.036159e-09 7.569673e-11 0.000000e+00  9.493154e-10 7.972108e-11 0.000000e+00  8.579562e-10 8.269213e-11 0.000000e+00  7.634073e-10 8.458414e-11 0.000000e+00  6.671512e-10 8.541082e-11 0.000000e+00  5.702251e-10 8.521087e-11 0.000000e+00  4.735520e-10 8.400889e-11 0.000000e+00  3.784720e-10 8.183151e-11 0.000000e+00  2.862984e-10 7.874107e-11 0.000000e+00  1.978101e-10 7.481584e-11 0.000000e+00  1.137476e-10 7.011957e-11 0.000000e+00  3.524125e-11 6.472055e-11 0.000000e+00  -3.675943e-11 5.871308e-11 0.000000e+00  -1.018717e-10 5.219631e-11 0.000000e+00  -1.596834e-10 4.525806e-11 0.000000e+00  -2.094410e-10 3.799329e-11 0.000000e+00  -2.506715e-10 3.050949e-11 0.000000e+00  -2.834396e-10 2.290736e-11 0.000000e+00  -3.077354e-10 1.528209e-11 0.000000e+00  -3.232773e-10 7.738354e-12 0.000000e+00  -3.300945e-10 3.782332e-13 0.000000e+00  -3.286669e-10 -6.713189e-12 0.000000e+00  -3.193865e-10 -1.344958e-11 0.000000e+00  -3.024592e-10 -1.973365e-11 0.000000e+00  -2.783621e-10 -2.548464e-11 0.000000e+00  -2.478878e-10 -3.064646e-11 0.000000e+00  -2.117615e-10 -3.515553e-11 0.000000e+00  -1.706160e-10 -3.893712e-11 0.000000e+00  -1.252562e-10 -4.194359e-11 0.000000e+00  -7.663660e-11 -4.415601e-11 0.000000e+00  -2.569004e-11 -4.554374e-11 0.000000e+00  2.664845e-11 -4.606628e-11 0.000000e+00  7.941020e-11 -4.571559e-11 0.000000e+00  1.316543e-10 -4.451232e-11 0.000000e+00  1.824020e-10 -4.246423e-11 0.000000e+00  2.305873e-10 -3.957181e-11 0.000000e+00  2.752608e-10 -3.586726e-11 0.000000e+00  3.156681e-10 -3.140752e-11 0.000000e+00  3.509611e-10 -2.623884e-11 0.000000e+00  3.801358e-10 -2.040359e-11 0.000000e+00  4.024369e-10 -1.396909e-11 0.000000e+00  4.174434e-10 -7.020111e-12 0.000000e+00  4.246034e-10 3.641644e-13 0.000000e+00  4.231617e-10 8.104770e-12 0.000000e+00  4.126993e-10 1.610967e-11 0.000000e+00  3.932272e-10 2.427900e-11 0.000000e+00  3.646200e-10 3.251133e-11 0.000000e+00  3.265233e-10 4.070247e-11 0.000000e+00  2.789419e-10 4.875032e-11 0.000000e+00  2.223529e-10 5.655547e-11 0.000000e+00  1.571297e-10 6.400936e-11 0.000000e+00  8.340994e-11 7.099899e-11 0.000000e+00  1.637766e-12 7.742959e-11 0.000000e+00  -8.728224e-11 8.321890e-11 0.000000e+00  -1.824806e-10 8.826922e-11 0.000000e+00  -2.833189e-10 9.247863e-11 0.000000e+00  -3.889781e-10 9.577772e-11 0.000000e+00  -4.982392e-10 9.811741e-11 0.000000e+00  -6.098241e-10 9.942959e-11 0.000000e+00  -7.226790e-10 9.964430e-11 0.000000e+00  -8.357531e-10 9.873397e-11 0.000000e+00  -9.476929e-10 9.669580e-11 0.000000e+00  -1.056983e-09 9.350831e-11 0.000000e+00  -1.162333e-09 8.915232e-11 0.000000e+00  -1.262670e-09 8.365443e-11 0.000000e+00  -1.356736e-09 7.706636e-11 0.000000e+00  -1.443021e-09 6.942581e-11 0.000000e+00  -1.520254e-09 6.077786e-11 0.000000e+00  -1.587595e-09 5.120906e-11 0.000000e+00  -1.644134e-09 4.082740e-11 0.000000e+00  -1.688654e-09 2.973519e-11 0.000000e+00  -1.720210e-09 1.804675e-11 0.000000e+00  -1.738457e-09 5.906067e-12 0.000000e+00  -1.743083e-09 -6.528469e-12 0.000000e+00  -1.733461e-09 -1.909372e-11 0.000000e+00  -1.709278e-09 -3.161228e-11 0.000000e+00  -1.670921e-09 -4.389473e-11 0.000000e+00  -1.618881e-09 -5.574628e-11 0.000000e+00  -1.553383e-09 -6.695780e-11 0.000000e+00  -1.475003e-09 -7.730819e-11 0.000000e+00  -1.385025e-09 -8.658535e-11 0.000000e+00  -1.284868e-09 -9.458146e-11 0.000000e+00  -1.175786e-09 -1.010702e-10 0.000000e+00  -1.059384e-09 -1.058237e-10 0.000000e+00  -9.378794e-10 -1.086463e-10 0.000000e+00  -8.136318e-10 -1.093592e-10 0.000000e+00  -6.889277e-10 -1.077769e-10 0.000000e+00  -5.663373e-10 -1.037434e-10 0.000000e+00  -4.488335e-10 -9.717454e-11 0.000000e+00  -3.394688e-10 -8.805990e-11 0.000000e+00  -2.412081e-10 -7.644547e-11 0.000000e+00  -1.570572e-10 -6.248466e-11 0.000000e+00  -9.015442e-11 -4.679420e-11 0.000000e+00  -4.313835e-11 -3.040168e-11 0.000000e+00  -1.791389e-11 -1.799574e-11 0.000000e+00  -1.331117e-11 -1.793054e-11 0.000000e+00  -4.698247e-12 1.964658e-12 0.000000e+00  5.565187e-08 -5.546049e-08 0.000000e+00  5.365628e-08 2.367594e-08 0.000000e+00  -1.515078e-07 1.524501e-07 0.000000e+00  -6.073555e-07 2.892999e-07 0.000000e+00  -1.312926e-06 4.170179e-07 0.000000e+00  -2.244979e-06 5.278805e-07 0.000000e+00  -3.369379e-06 6.186752e-07 0.000000e+00  -4.647504e-06 6.883842e-07 0.000000e+00  -6.039467e-06 7.371328e-07 0.000000e+00  -7.505943e-06 7.656930e-07 0.000000e+00  -9.009242e-06 7.752243e-07 0.000000e+00  -1.051401e-05 7.671228e-07 0.000000e+00  -1.199142e-05 7.432486e-07 0.000000e+00  -1.340044e-05 7.043711e-07 0.000000e+00  -1.472125e-05 6.528113e-07 0.000000e+00  -1.594172e-05 5.908386e-07 0.000000e+00  -1.703334e-05 5.196430e-07 0.000000e+00  -1.796698e-05 4.405002e-07 0.000000e+00  -1.874062e-05 3.556237e-07 0.000000e+00  -1.935905e-05 2.670694e-07 0.000000e+00  -1.980290e-05 1.759853e-07 0.000000e+00  -2.005279e-05 8.355839e-08 0.000000e+00  -2.012258e-05 -8.392402e-09 0.000000e+00  -2.003140e-05 -9.825881e-08 0.000000e+00  -1.976797e-05 -1.851224e-07 0.000000e+00  -1.932130e-05 -2.680596e-07 0.000000e+00  -1.871742e-05 -3.458057e-07 0.000000e+00  -1.798579e-05 -4.173289e-07 0.000000e+00  -1.712098e-05 -4.820485e-07 0.000000e+00  -1.611792e-05 -5.393981e-07 0.000000e+00  -1.501022e-05 -5.887312e-07 0.000000e+00  -1.383296e-05 -6.296316e-07 0.000000e+00  -1.258378e-05 -6.618905e-07 0.000000e+00  -1.126063e-05 -6.853162e-07 0.000000e+00  -9.899884e-06 -6.998629e-07 0.000000e+00  -8.537528e-06 -7.056932e-07 0.000000e+00  -7.171470e-06 -7.029369e-07 0.000000e+00  -5.799921e-06 -6.917309e-07 0.000000e+00  -4.457567e-06 -6.725471e-07 0.000000e+00  -3.177153e-06 -6.460294e-07 0.000000e+00  -1.954509e-06 -6.125613e-07 0.000000e+00  -7.858622e-07 -5.725147e-07 0.000000e+00  2.993518e-07 -5.267496e-07 0.000000e+00  1.274883e-06 -4.762527e-07 0.000000e+00  2.148509e-06 -4.215439e-07 0.000000e+00  2.927365e-06 -3.631074e-07 0.000000e+00  3.589729e-06 -3.020365e-07 0.000000e+00  4.117914e-06 -2.395030e-07 0.000000e+00  4.523854e-06 -1.760318e-07 0.000000e+00  4.818426e-06 -1.120881e-07 0.000000e+00  4.988836e-06 -4.883891e-08 0.000000e+00  5.026784e-06 1.251775e-08 0.000000e+00  4.947888e-06 7.157786e-08 0.000000e+00  4.766145e-06 1.280175e-07 0.000000e+00  4.477694e-06 1.807436e-07 0.000000e+00  4.083251e-06 2.286740e-07 0.000000e+00  3.600734e-06 2.716315e-07 0.000000e+00  3.045763e-06 3.095321e-07 0.000000e+00  2.422353e-06 3.414778e-07 0.000000e+00  1.738861e-06 3.666151e-07 0.000000e+00  1.013414e-06 3.850674e-07 0.000000e+00  2.611103e-07 3.970545e-07 0.000000e+00  -5.080262e-07 4.019577e-07 0.000000e+00  -1.280105e-06 3.992262e-07 0.000000e+00  -2.039313e-06 3.893171e-07 0.000000e+00  -2.773549e-06 3.727759e-07 0.000000e+00  -3.469142e-06 3.493042e-07 0.000000e+00  -4.109193e-06 3.186838e-07 0.000000e+00  -4.682796e-06 2.816932e-07 0.000000e+00  -5.183324e-06 2.391801e-07 0.000000e+00  -5.595963e-06 1.911614e-07 0.000000e+00  -5.903380e-06 1.377350e-07 0.000000e+00  -6.101898e-06 7.994319e-08 0.000000e+00  -6.192471e-06 1.886685e-08 0.000000e+00  -6.161434e-06 -4.521179e-08 0.000000e+00  -5.993288e-06 -1.119385e-07 0.000000e+00  -5.693286e-06 -1.801073e-07 0.000000e+00  -5.271364e-06 -2.485147e-07 0.000000e+00  -4.716746e-06 -3.167019e-07 0.000000e+00  -4.017420e-06 -3.841557e-07 0.000000e+00  -3.188332e-06 -4.496418e-07 0.000000e+00  -2.248807e-06 -5.119764e-07 0.000000e+00  -1.191883e-06 -5.706432e-07 0.000000e+00  -9.807783e-09 -6.250938e-07 0.000000e+00  1.273174e-06 -6.742239e-07 0.000000e+00  2.629144e-06 -7.170315e-07 0.000000e+00  4.061326e-06 -7.530774e-07 0.000000e+00  5.573468e-06 -7.819139e-07 0.000000e+00  7.133699e-06 -8.027319e-07 0.000000e+00  8.707587e-06 -8.148752e-07 0.000000e+00  1.029575e-05 -8.181146e-07 0.000000e+00  1.189924e-05 -8.122323e-07 0.000000e+00  1.348148e-05 -7.968667e-07 0.000000e+00  1.500484e-05 -7.718528e-07 0.000000e+00  1.646941e-05 -7.372821e-07 0.000000e+00  1.787576e-05 -6.932685e-07 0.000000e+00  1.918664e-05 -6.400152e-07 0.000000e+00  2.036546e-05 -5.779539e-07 0.000000e+00  2.141461e-05 -5.075639e-07 0.000000e+00  2.233703e-05 -4.293456e-07 0.000000e+00  2.309945e-05 -3.441293e-07 0.000000e+00  2.367126e-05 -2.529881e-07 0.000000e+00  2.406021e-05 -1.567967e-07 0.000000e+00  2.427461e-05 -5.643370e-08 0.000000e+00  2.429014e-05 4.665198e-08 0.000000e+00  2.408704e-05 1.507765e-07 0.000000e+00  2.368130e-05 2.547327e-07 0.000000e+00  2.308930e-05 3.573424e-07 0.000000e+00  2.230016e-05 4.566273e-07 0.000000e+00  2.130935e-05 5.504073e-07 0.000000e+00  2.014310e-05 6.372789e-07 0.000000e+00  1.882765e-05 7.159115e-07 0.000000e+00  1.736905e-05 7.839725e-07 0.000000e+00  1.578096e-05 8.389931e-07 0.000000e+00  1.410054e-05 8.795842e-07 0.000000e+00  1.236417e-05 9.044796e-07 0.000000e+00  1.059638e-05 9.112859e-07 0.000000e+00  8.829723e-06 8.976253e-07 0.000000e+00  7.110521e-06 8.625094e-07 0.000000e+00  5.482975e-06 8.052049e-07 0.000000e+00  3.987470e-06 7.241100e-07 0.000000e+00  2.669812e-06 6.183854e-07 0.000000e+00  1.575734e-06 4.896254e-07 0.000000e+00  7.424919e-07 3.416068e-07 0.000000e+00  1.986338e-07 1.823312e-07 0.000000e+00  -5.102100e-08 3.216747e-08 0.000000e+00  -6.056075e-08 -6.069996e-08 0.000000e+00  -1.368647e-11 -1.214659e-11 0.000000e+00  6.598113e-13 -2.653920e-12 0.000000e+00  -2.214115e-08 -5.438295e-08 0.000000e+00  -2.470088e-07 2.496306e-07 0.000000e+00  -8.280895e-07 6.988113e-07 0.000000e+00  -1.823113e-06 1.180126e-06 0.000000e+00  -3.234018e-06 1.635450e-06 0.000000e+00  -5.027759e-06 2.035601e-06 0.000000e+00  -7.151535e-06 2.366643e-06 0.000000e+00  -9.542356e-06 2.622875e-06 0.000000e+00  -1.213285e-05 2.803291e-06 0.000000e+00  -1.485497e-05 2.909694e-06 0.000000e+00  -1.764234e-05 2.945642e-06 0.000000e+00  -2.043187e-05 2.915832e-06 0.000000e+00  -2.317240e-05 2.826833e-06 0.000000e+00  -2.578717e-05 2.681241e-06 0.000000e+00  -2.824119e-05 2.487644e-06 0.000000e+00  -3.051353e-05 2.254472e-06 0.000000e+00  -3.255017e-05 1.986081e-06 0.000000e+00  -3.429561e-05 1.687222e-06 0.000000e+00  -3.574709e-05 1.366283e-06 0.000000e+00  -3.691451e-05 1.031031e-06 0.000000e+00  -3.776016e-05 6.857581e-07 0.000000e+00  -3.824611e-05 3.349755e-07 0.000000e+00  -3.839900e-05 -1.435530e-08 0.000000e+00  -3.825535e-05 -3.561198e-07 0.000000e+00  -3.779223e-05 -6.868519e-07 0.000000e+00  -3.698714e-05 -1.003002e-06 0.000000e+00  -3.588948e-05 -1.299694e-06 0.000000e+00  -3.455512e-05 -1.572991e-06 0.000000e+00  -3.297200e-05 -1.820688e-06 0.000000e+00  -3.112867e-05 -2.040577e-06 0.000000e+00  -2.908882e-05 -2.230135e-06 0.000000e+00  -2.691896e-05 -2.387769e-06 0.000000e+00  -2.461280e-05 -2.512679e-06 0.000000e+00  -2.216470e-05 -2.604076e-06 0.000000e+00  -1.964366e-05 -2.661738e-06 0.000000e+00  -1.711802e-05 -2.686285e-06 0.000000e+00  -1.458215e-05 -2.678200e-06 0.000000e+00  -1.203109e-05 -2.637946e-06 0.000000e+00  -9.530833e-06 -2.567292e-06 0.000000e+00  -7.143732e-06 -2.468704e-06 0.000000e+00  -4.860484e-06 -2.343627e-06 0.000000e+00  -2.672678e-06 -2.193424e-06 0.000000e+00  -6.365767e-07 -2.021363e-06 0.000000e+00  1.197612e-06 -1.831231e-06 0.000000e+00  2.845686e-06 -1.624985e-06 0.000000e+00  4.322057e-06 -1.404424e-06 0.000000e+00  5.584888e-06 -1.173724e-06 0.000000e+00  6.600046e-06 -9.373867e-07 0.000000e+00  7.390831e-06 -6.973850e-07 0.000000e+00  7.978353e-06 -4.554485e-07 0.000000e+00  8.337551e-06 -2.160522e-07 0.000000e+00  8.451969e-06 1.619745e-08 0.000000e+00  8.351522e-06 2.397946e-07 0.000000e+00  8.062843e-06 4.535445e-07 0.000000e+00  7.577722e-06 6.532412e-07 0.000000e+00  6.896748e-06 8.347192e-07 0.000000e+00  6.053847e-06 9.973450e-07 0.000000e+00  5.078378e-06 1.140836e-06 0.000000e+00  3.977057e-06 1.261721e-06 0.000000e+00  2.764983e-06 1.356710e-06 0.000000e+00  1.476178e-06 1.426323e-06 0.000000e+00  1.387206e-07 1.471433e-06 0.000000e+00  -1.229200e-06 1.489631e-06 0.000000e+00  -2.601897e-06 1.478785e-06 0.000000e+00  -3.949961e-06 1.440694e-06 0.000000e+00  -5.251216e-06 1.377472e-06 0.000000e+00  -6.480396e-06 1.287927e-06 0.000000e+00  -7.605925e-06 1.171203e-06 0.000000e+00  -8.607855e-06 1.030328e-06 0.000000e+00  -9.474517e-06 8.685658e-07 0.000000e+00  -1.017823e-05 6.859237e-07 0.000000e+00  -1.068635e-05 4.827567e-07 0.000000e+00  -1.099269e-05 2.631027e-07 0.000000e+00  -1.109999e-05 3.110437e-08 0.000000e+00  -1.098245e-05 -2.122196e-07 0.000000e+00  -1.061056e-05 -4.655316e-07 0.000000e+00  -9.995055e-06 -7.241737e-07 0.000000e+00  -9.155664e-06 -9.835457e-07 0.000000e+00  -8.071673e-06 -1.241958e-06 0.000000e+00  -6.719820e-06 -1.497464e-06 0.000000e+00  -5.129128e-06 -1.745306e-06 0.000000e+00  -3.336990e-06 -1.980973e-06 0.000000e+00  -1.329516e-06 -2.202558e-06 0.000000e+00  9.088690e-07 -2.407980e-06 0.000000e+00  3.331666e-06 -2.592989e-06 0.000000e+00  5.885387e-06 -2.753784e-06 0.000000e+00  8.577237e-06 -2.888754e-06 0.000000e+00  1.141557e-05 -2.996201e-06 0.000000e+00  1.433963e-05 -3.073016e-06 0.000000e+00  1.728380e-05 -3.116735e-06 0.000000e+00  2.025070e-05 -3.126547e-06 0.000000e+00  2.324389e-05 -3.101630e-06 0.000000e+00  2.619389e-05 -3.040598e-06 0.000000e+00  2.902921e-05 -2.942874e-06 0.000000e+00  3.175177e-05 -2.808864e-06 0.000000e+00  3.436442e-05 -2.639011e-06 0.000000e+00  3.679651e-05 -2.434095e-06 0.000000e+00  3.897871e-05 -2.195824e-06 0.000000e+00  4.091742e-05 -1.926072e-06 0.000000e+00  4.262000e-05 -1.626747e-06 0.000000e+00  4.402343e-05 -1.301032e-06 0.000000e+00  4.506973e-05 -9.530752e-07 0.000000e+00  4.577534e-05 -5.862392e-07 0.000000e+00  4.615773e-05 -2.038589e-07 0.000000e+00  4.617068e-05 1.885260e-07 0.000000e+00  4.577661e-05 5.844581e-07 0.000000e+00  4.500724e-05 9.793482e-07 0.000000e+00  4.389494e-05 1.368746e-06 0.000000e+00  4.241857e-05 1.745121e-06 0.000000e+00  4.056890e-05 2.100182e-06 0.000000e+00  3.839643e-05 2.428666e-06 0.000000e+00  3.595137e-05 2.725606e-06 0.000000e+00  3.324381e-05 2.982209e-06 0.000000e+00  3.029794e-05 3.189234e-06 0.000000e+00  2.718358e-05 3.341645e-06 0.000000e+00  2.396868e-05 3.434907e-06 0.000000e+00  2.069638e-05 3.460280e-06 0.000000e+00  1.742415e-05 3.409295e-06 0.000000e+00  1.423626e-05 3.278963e-06 0.000000e+00  1.121190e-05 3.067431e-06 0.000000e+00  8.419353e-06 2.769935e-06 0.000000e+00  5.934843e-06 2.385163e-06 0.000000e+00  3.834412e-06 1.921374e-06 0.000000e+00  2.176152e-06 1.394889e-06 0.000000e+00  9.992321e-07 8.358990e-07 0.000000e+00  3.076995e-07 3.104637e-07 0.000000e+00  3.165309e-08 -5.080424e-08 0.000000e+00  -1.348474e-11 -1.608332e-11 0.000000e+00  4.187239e-12 -3.975261e-12 0.000000e+00  -1.495232e-07 1.477143e-07 0.000000e+00  -6.942973e-07 8.304512e-07 0.000000e+00  -1.741319e-06 1.744524e-06 0.000000e+00  -3.330943e-06 2.712428e-06 0.000000e+00  -5.456140e-06 3.631906e-06 0.000000e+00  -8.074077e-06 4.445776e-06 0.000000e+00  -1.111888e-05 5.123621e-06 0.000000e+00  -1.451086e-05 5.651135e-06 0.000000e+00  -1.816327e-05 6.023942e-06 0.000000e+00  -2.198710e-05 6.243977e-06 0.000000e+00  -2.589438e-05 6.317305e-06 0.000000e+00  -2.980056e-05 6.252767e-06 0.000000e+00  -3.363773e-05 6.063497e-06 0.000000e+00  -3.729803e-05 5.754289e-06 0.000000e+00  -4.073555e-05 5.343001e-06 0.000000e+00  -4.392369e-05 4.847317e-06 0.000000e+00  -4.678575e-05 4.276201e-06 0.000000e+00  -4.924247e-05 3.639543e-06 0.000000e+00  -5.129173e-05 2.955184e-06 0.000000e+00  -5.294910e-05 2.239690e-06 0.000000e+00  -5.415966e-05 1.502119e-06 0.000000e+00  -5.486790e-05 7.520349e-07 0.000000e+00  -5.511247e-05 4.386171e-09 0.000000e+00  -5.494599e-05 -7.276915e-07 0.000000e+00  -5.433379e-05 -1.436810e-06 0.000000e+00  -5.324162e-05 -2.115365e-06 0.000000e+00  -5.174009e-05 -2.752826e-06 0.000000e+00  -4.990892e-05 -3.340691e-06 0.000000e+00  -4.772853e-05 -3.874224e-06 0.000000e+00  -4.518017e-05 -4.348642e-06 0.000000e+00  -4.235460e-05 -4.758453e-06 0.000000e+00  -3.934662e-05 -5.100196e-06 0.000000e+00  -3.614480e-05 -5.372105e-06 0.000000e+00  -3.273868e-05 -5.572419e-06 0.000000e+00  -2.922667e-05 -5.700602e-06 0.000000e+00  -2.570625e-05 -5.757963e-06 0.000000e+00  -2.216710e-05 -5.745472e-06 0.000000e+00  -1.859998e-05 -5.664040e-06 0.000000e+00  -1.509925e-05 -5.517436e-06 0.000000e+00  -1.175406e-05 -5.310963e-06 0.000000e+00  -8.549203e-06 -5.047646e-06 0.000000e+00  -5.470947e-06 -4.730320e-06 0.000000e+00  -2.600042e-06 -4.366009e-06 0.000000e+00  -8.588349e-09 -3.962881e-06 0.000000e+00  2.327395e-06 -3.525060e-06 0.000000e+00  4.429684e-06 -3.056308e-06 0.000000e+00  6.237808e-06 -2.565636e-06 0.000000e+00  7.702338e-06 -2.062773e-06 0.000000e+00  8.857423e-06 -1.551870e-06 0.000000e+00  9.733822e-06 -1.036541e-06 0.000000e+00  1.029475e-05 -5.264642e-07 0.000000e+00  1.051579e-05 -3.161570e-08 0.000000e+00  1.043997e-05 4.448630e-07 0.000000e+00  1.010540e-05 9.005105e-07 0.000000e+00  9.499144e-06 1.326208e-06 0.000000e+00  8.620991e-06 1.712912e-06 0.000000e+00  7.519206e-06 2.059362e-06 0.000000e+00  6.235263e-06 2.365060e-06 0.000000e+00  4.777491e-06 2.622456e-06 0.000000e+00  3.166355e-06 2.824377e-06 0.000000e+00  1.449839e-06 2.972050e-06 0.000000e+00  -3.328110e-07 3.067465e-06 0.000000e+00  -2.156825e-06 3.105343e-06 0.000000e+00  -3.986520e-06 3.081001e-06 0.000000e+00  -5.780807e-06 2.998421e-06 0.000000e+00  -7.509146e-06 2.862255e-06 0.000000e+00  -9.136463e-06 2.669839e-06 0.000000e+00  -1.061843e-05 2.419234e-06 0.000000e+00  -1.192765e-05 2.117064e-06 0.000000e+00  -1.304872e-05 1.770444e-06 0.000000e+00  -1.394279e-05 1.379287e-06 0.000000e+00  -1.456362e-05 9.442626e-07 0.000000e+00  -1.490354e-05 4.741534e-07 0.000000e+00  -1.496770e-05 -2.204699e-08 0.000000e+00  -1.471947e-05 -5.422519e-07 0.000000e+00  -1.411665e-05 -1.083677e-06 0.000000e+00  -1.317560e-05 -1.636224e-06 0.000000e+00  -1.192561e-05 -2.189935e-06 0.000000e+00  -1.033677e-05 -2.741284e-06 0.000000e+00  -8.375257e-06 -3.286174e-06 0.000000e+00  -6.083333e-06 -3.814315e-06 0.000000e+00  -3.515261e-06 -4.315970e-06 0.000000e+00  -6.502849e-07 -4.787147e-06 0.000000e+00  2.535013e-06 -5.223457e-06 0.000000e+00  5.973698e-06 -5.615729e-06 0.000000e+00  9.588842e-06 -5.955787e-06 0.000000e+00  1.339224e-05 -6.240273e-06 0.000000e+00  1.739756e-05 -6.465617e-06 0.000000e+00  2.151778e-05 -6.625135e-06 0.000000e+00  2.565901e-05 -6.713554e-06 0.000000e+00  2.982701e-05 -6.729230e-06 0.000000e+00  3.402901e-05 -6.670468e-06 0.000000e+00  3.816586e-05 -6.534316e-06 0.000000e+00  4.213551e-05 -6.319587e-06 0.000000e+00  4.594309e-05 -6.027240e-06 0.000000e+00  4.959510e-05 -5.658276e-06 0.000000e+00  5.299083e-05 -5.214424e-06 0.00000