<?xml version="1.0"?>
<VTKFile type="UnstructuredGrid"  version="0.1"  >
<UnstructuredGrid>
<Piece  NumberOfPoints="16641" NumberOfCells="32768">
<Points>
<DataArray  type="Float32"  NumberOfComponents="3"  format="ascii">0 0 0  0.0078125 0 0  0.015625 0 0  0.0234375 0 0  0.03125 0 0  0.0390625 0 0  0.046875 0 0  0.0546875 0 0  0.0625 0 0  0.0703125 0 0  0.078125 0 0  0.0859375 0 0  0.09375 0 0  0.101562 0 0  0.109375 0 0  0.117188 0 0  0.125 0 0  0.132812 0 0  0.140625 0 0  0.148438 0 0  0.15625 0 0  0.164062 0 0  0.171875 0 0  0.179688 0 0  0.1875 0 0  0.195312 0 0  0.203125 0 0  0.210938 0 0  0.21875 0 0  0.226562 0 0  0.234375 0 0  0.242188 0 0  0.25 0 0  0.257812 0 0  0.265625 0 0  0.273438 0 0  0.28125 0 0  0.289062 0 0  0.296875 0 0  0.304688 0 0  0.3125 0 0  0.320312 0 0  0.328125 0 0  0.335938 0 0  0.34375 0 0  0.351562 0 0  0.359375 0 0  0.367188 0 0  0.375 0 0  0.382812 0 0  0.390625 0 0  0.398438 0 0  0.40625 0 0  0.414062 0 0  0.421875 0 0  0.429688 0 0  0.4375 0 0  0.445312 0 0  0.453125 0 0  0.460938 0 0  0.46875 0 0  0.476562 0 0  0.484375 0 0  0.492188 0 0  0.5 0 0  0.507812 0 0  0.515625 0 0  0.523438 0 0  0.53125 0 0  0.539062 0 0  0.546875 0 0  0.554688 0 0  0.5625 0 0  0.570312 0 0  0.578125 0 0  0.585938 0 0  0.59375 0 0  0.601562 0 0  0.609375 0 0  0.617188 0 0  0.625 0 0  0.632812 0 0  0.640625 0 0  0.648438 0 0  0.65625 0 0  0.664062 0 0  0.671875 0 0  0.679688 0 0  0.6875 0 0  0.695312 0 0  0.703125 0 0  0.710938 0 0  0.71875 0 0  0.726562 0 0  0.734375 0 0  0.742188 0 0  0.75 0 0  0.757812 0 0  0.765625 0 0  0.773438 0 0  0.78125 0 0  0.789062 0 0  0.796875 0 0  0.804688 0 0  0.8125 0 0  0.820312 0 0  0.828125 0 0  0.835938 0 0  0.84375 0 0  0.851562 0 0  0.859375 0 0  0.867188 0 0  0.875 0 0  0.882812 0 0  0.890625 0 0  0.898438 0 0  0.90625 0 0  0.914062 0 0  0.921875 0 0  0.929688 0 0  0.9375 0 0  0.945312 0 0  0.953125 0 0  0.960938 0 0  0.96875 0 0  0.976562 0 0  0.984375 0 0  0.992188 0 0  1 0 0  0 0.0078125 0  0.0078125 0.0078125 0  0.015625 0.0078125 0  0.0234375 0.0078125 0  0.03125 0.0078125 0  0.0390625 0.0078125 0  0.046875 0.0078125 0  0.0546875 0.0078125 0  0.0625 0.0078125 0  0.0703125 0.0078125 0  0.078125 0.0078125 0  0.0859375 0.0078125 0  0.09375 0.0078125 0  0.101562 0.0078125 0  0.109375 0.0078125 0  0.117188 0.0078125 0  0.125 0.0078125 0  0.132812 0.0078125 0  0.140625 0.0078125 0  0.148438 0.0078125 0  0.15625 0.0078125 0  0.164062 0.0078125 0  0.171875 0.0078125 0  0.179688 0.0078125 0  0.1875 0.0078125 0  0.195312 0.0078125 0  0.203125 0.0078125 0  0.210938 0.0078125 0  0.21875 0.0078125 0  0.226562 0.0078125 0  0.234375 0.0078125 0  0.242188 0.0078125 0  0.25 0.0078125 0  0.257812 0.0078125 0  0.265625 0.0078125 0  0.273438 0.0078125 0  0.28125 0.0078125 0  0.289062 0.0078125 0  0.296875 0.0078125 0  0.304688 0.0078125 0  0.3125 0.0078125 0  0.320312 0.0078125 0  0.328125 0.0078125 0  0.335938 0.0078125 0  0.34375 0.0078125 0  0.351562 0.0078125 0  0.359375 0.0078125 0  0.367188 0.0078125 0  0.375 0.0078125 0  0.382812 0.0078125 0  0.390625 0.0078125 0  0.398438 0.0078125 0  0.40625 0.0078125 0  0.414062 0.0078125 0  0.421875 0.0078125 0  0.429688 0.0078125 0  0.4375 0.0078125 0  0.445312 0.0078125 0  0.453125 0.0078125 0  0.460938 0.0078125 0  0.46875 0.0078125 0  0.476562 0.0078125 0  0.484375 0.0078125 0  0.492188 0.0078125 0  0.5 0.0078125 0  0.507812 0.0078125 0  0.515625 0.0078125 0  0.523438 0.0078125 0  0.53125 0.0078125 0  0.539062 0.0078125 0  0.546875 0.0078125 0  0.554688 0.0078125 0  0.5625 0.0078125 0  0.570312 0.0078125 0  0.578125 0.0078125 0  0.585938 0.0078125 0  0.59375 0.0078125 0  0.601562 0.0078125 0  0.609375 0.0078125 0  0.617188 0.0078125 0  0.625 0.0078125 0  0.632812 0.0078125 0  0.640625 0.0078125 0  0.648438 0.0078125 0  0.65625 0.0078125 0  0.664062 0.0078125 0  0.671875 0.0078125 0  0.679688 0.0078125 0  0.6875 0.0078125 0  0.695312 0.0078125 0  0.703125 0.0078125 0  0.710938 0.0078125 0  0.71875 0.0078125 0  0.726562 0.0078125 0  0.734375 0.0078125 0  0.742188 0.0078125 0  0.75 0.0078125 0  0.757812 0.0078125 0  0.765625 0.0078125 0  0.773438 0.0078125 0  0.78125 0.0078125 0  0.789062 0.0078125 0  0.796875 0.0078125 0  0.804688 0.0078125 0  0.8125 0.0078125 0  0.820312 0.0078125 0  0.828125 0.0078125 0  0.835938 0.0078125 0  0.84375 0.0078125 0  0.851562 0.0078125 0  0.859375 0.0078125 0  0.867188 0.0078125 0  0.875 0.0078125 0  0.882812 0.0078125 0  0.890625 0.0078125 0  0.898438 0.0078125 0  0.90625 0.0078125 0  0.914062 0.0078125 0  0.921875 0.0078125 0  0.929688 0.0078125 0  0.9375 0.0078125 0  0.945312 0.0078125 0  0.953125 0.0078125 0  0.960938 0.0078125 0  0.96875 0.0078125 0  0.976562 0.0078125 0  0.984375 0.0078125 0  0.992188 0.0078125 0  1 0.0078125 0  0 0.015625 0  0.0078125 0.015625 0  0.015625 0.015625 0  0.0234375 0.015625 0  0.03125 0.015625 0  0.0390625 0.015625 0  0.046875 0.015625 0  0.0546875 0.015625 0  0.0625 0.015625 0  0.0703125 0.015625 0  0.078125 0.015625 0  0.0859375 0.015625 0  0.09375 0.015625 0  0.101562 0.015625 0  0.109375 0.015625 0  0.117188 0.015625 0  0.125 0.015625 0  0.132812 0.015625 0  0.140625 0.015625 0  0.148438 0.015625 0  0.15625 0.015625 0  0.164062 0.015625 0  0.171875 0.015625 0  0.179688 0.015625 0  0.1875 0.015625 0  0.195312 0.015625 0  0.203125 0.015625 0  0.210938 0.015625 0  0.21875 0.015625 0  0.226562 0.015625 0  0.234375 0.015625 0  0.242188 0.015625 0  0.25 0.015625 0  0.257812 0.015625 0  0.265625 0.015625 0  0.273438 0.015625 0  0.28125 0.015625 0  0.289062 0.015625 0  0.296875 0.015625 0  0.304688 0.015625 0  0.3125 0.015625 0  0.320312 0.015625 0  0.328125 0.015625 0  0.335938 0.015625 0  0.34375 0.015625 0  0.351562 0.015625 0  0.359375 0.015625 0  0.367188 0.015625 0  0.375 0.015625 0  0.382812 0.015625 0  0.390625 0.015625 0  0.398438 0.015625 0  0.40625 0.015625 0  0.414062 0.015625 0  0.421875 0.015625 0  0.429688 0.015625 0  0.4375 0.015625 0  0.445312 0.015625 0  0.453125 0.015625 0  0.460938 0.015625 0  0.46875 0.015625 0  0.476562 0.015625 0  0.484375 0.015625 0  0.492188 0.015625 0  0.5 0.015625 0  0.507812 0.015625 0  0.515625 0.015625 0  0.523438 0.015625 0  0.53125 0.015625 0  0.539062 0.015625 0  0.546875 0.015625 0  0.554688 0.015625 0  0.5625 0.015625 0  0.570312 0.015625 0  0.578125 0.015625 0  0.585938 0.015625 0  0.59375 0.015625 0  0.601562 0.015625 0  0.609375 0.015625 0  0.617188 0.015625 0  0.625 0.015625 0  0.632812 0.015625 0  0.640625 0.015625 0  0.648438 0.015625 0  0.65625 0.015625 0  0.664062 0.015625 0  0.671875 0.015625 0  0.679688 0.015625 0  0.6875 0.015625 0  0.695312 0.015625 0  0.703125 0.015625 0  0.710938 0.015625 0  0.71875 0.015625 0  0.726562 0.015625 0  0.734375 0.015625 0  0.742188 0.015625 0  0.75 0.015625 0  0.757812 0.015625 0  0.765625 0.015625 0  0.773438 0.015625 0  0.78125 0.015625 0  0.789062 0.015625 0  0.796875 0.015625 0  0.804688 0.015625 0  0.8125 0.015625 0  0.820312 0.015625 0  0.828125 0.015625 0  0.835938 0.015625 0  0.84375 0.015625 0  0.851562 0.015625 0  0.859375 0.015625 0  0.867188 0.015625 0  0.875 0.015625 0  0.882812 0.015625 0  0.890625 0.015625 0  0.898438 0.015625 0  0.90625 0.015625 0  0.914062 0.015625 0  0.921875 0.015625 0  0.929688 0.015625 0  0.9375 0.015625 0  0.945312 0.015625 0  0.953125 0.015625 0  0.960938 0.015625 0  0.96875 0.015625 0  0.976562 0.015625 0  0.984375 0.015625 0  0.992188 0.015625 0  1 0.015625 0  0 0.0234375 0  0.0078125 0.0234375 0  0.015625 0.0234375 0  0.0234375 0.0234375 0  0.03125 0.0234375 0  0.0390625 0.0234375 0  0.046875 0.0234375 0  0.0546875 0.0234375 0  0.0625 0.0234375 0  0.0703125 0.0234375 0  0.078125 0.0234375 0  0.0859375 0.0234375 0  0.09375 0.0234375 0  0.101562 0.0234375 0  0.109375 0.0234375 0  0.117188 0.0234375 0  0.125 0.0234375 0  0.132812 0.0234375 0  0.140625 0.0234375 0  0.148438 0.0234375 0  0.15625 0.0234375 0  0.164062 0.0234375 0  0.171875 0.0234375 0  0.179688 0.0234375 0  0.1875 0.0234375 0  0.195312 0.0234375 0  0.203125 0.0234375 0  0.210938 0.0234375 0  0.21875 0.0234375 0  0.226562 0.0234375 0  0.234375 0.0234375 0  0.242188 0.0234375 0  0.25 0.0234375 0  0.257812 0.0234375 0  0.265625 0.0234375 0  0.273438 0.0234375 0  0.28125 0.0234375 0  0.289062 0.0234375 0  0.296875 0.0234375 0  0.304688 0.0234375 0  0.3125 0.0234375 0  0.320312 0.0234375 0  0.328125 0.0234375 0  0.335938 0.0234375 0  0.34375 0.0234375 0  0.351562 0.0234375 0  0.359375 0.0234375 0  0.367188 0.0234375 0  0.375 0.0234375 0  0.382812 0.0234375 0  0.390625 0.0234375 0  0.398438 0.0234375 0  0.40625 0.0234375 0  0.414062 0.0234375 0  0.421875 0.0234375 0  0.429688 0.0234375 0  0.4375 0.0234375 0  0.445312 0.0234375 0  0.453125 0.0234375 0  0.460938 0.0234375 0  0.46875 0.0234375 0  0.476562 0.0234375 0  0.484375 0.0234375 0  0.492188 0.0234375 0  0.5 0.0234375 0  0.507812 0.0234375 0  0.515625 0.0234375 0  0.523438 0.0234375 0  0.53125 0.0234375 0  0.539062 0.0234375 0  0.546875 0.0234375 0  0.554688 0.0234375 0  0.5625 0.0234375 0  0.570312 0.0234375 0  0.578125 0.0234375 0  0.585938 0.0234375 0  0.59375 0.0234375 0  0.601562 0.0234375 0  0.609375 0.0234375 0  0.617188 0.0234375 0  0.625 0.0234375 0  0.632812 0.0234375 0  0.640625 0.0234375 0  0.648438 0.0234375 0  0.65625 0.0234375 0  0.664062 0.0234375 0  0.671875 0.0234375 0  0.679688 0.0234375 0  0.6875 0.0234375 0  0.695312 0.0234375 0  0.703125 0.0234375 0  0.710938 0.0234375 0  0.71875 0.0234375 0  0.726562 0.0234375 0  0.734375 0.0234375 0  0.742188 0.0234375 0  0.75 0.0234375 0  0.757812 0.0234375 0  0.765625 0.0234375 0  0.773438 0.0234375 0  0.78125 0.0234375 0  0.789062 0.0234375 0  0.796875 0.0234375 0  0.804688 0.0234375 0  0.8125 0.0234375 0  0.820312 0.0234375 0  0.828125 0.0234375 0  0.835938 0.0234375 0  0.84375 0.0234375 0  0.851562 0.0234375 0  0.859375 0.0234375 0  0.867188 0.0234375 0  0.875 0.0234375 0  0.882812 0.0234375 0  0.890625 0.0234375 0  0.898438 0.0234375 0  0.90625 0.0234375 0  0.914062 0.0234375 0  0.921875 0.0234375 0  0.929688 0.0234375 0  0.9375 0.0234375 0  0.945312 0.0234
[...]
<PointData  Vectors="u"> 
<DataArray  type="Float32"  Name="u"  NumberOfComponents="3" format="ascii">1.121268e-10 -5.166704e-11 0.000000e+00  5.067588e-11 -1.439759e-11 0.000000e+00  9.729052e-12 2.155797e-11 0.000000e+00  -4.174925e-11 -3.262226e-12 0.000000e+00  -4.342753e-11 -6.033979e-11 0.000000e+00  1.390692e-12 -1.321255e-10 0.000000e+00  1.312909e-10 -2.148342e-10 0.000000e+00  3.565017e-10 -3.000279e-10 0.000000e+00  6.771603e-10 -3.811796e-10 0.000000e+00  1.087153e-09 -4.540649e-10 0.000000e+00  1.576430e-09 -5.161619e-10 0.000000e+00  2.132573e-09 -5.661139e-10 0.000000e+00  2.742427e-09 -6.034394e-10 0.000000e+00  3.390818e-09 -6.280395e-10 0.000000e+00  4.065660e-09 -6.406289e-10 0.000000e+00  4.753505e-09 -6.419414e-10 0.000000e+00  5.440658e-09 -6.328468e-10 0.000000e+00  6.116518e-09 -6.145882e-10 0.000000e+00  6.773116e-09 -5.885814e-10 0.000000e+00  7.401401e-09 -5.560907e-10 0.000000e+00  7.992288e-09 -5.183424e-10 0.000000e+00  8.541152e-09 -4.767434e-10 0.000000e+00  9.046401e-09 -4.327055e-10 0.000000e+00  9.504399e-09 -3.874198e-10 0.000000e+00  9.911221e-09 -3.419771e-10 0.000000e+00  1.026801e-08 -2.975106e-10 0.000000e+00  1.057876e-08 -2.550662e-10 0.000000e+00  1.084439e-08 -2.154804e-10 0.000000e+00  1.106508e-08 -1.794693e-10 0.000000e+00  1.124616e-08 -1.476998e-10 0.000000e+00  1.139530e-08 -1.207164e-10 0.000000e+00  1.151624e-08 -9.889416e-11 0.000000e+00  1.161150e-08 -8.248730e-11 0.000000e+00  1.168843e-08 -7.165972e-11 0.000000e+00  1.175621e-08 -6.646311e-11 0.000000e+00  1.181943e-08 -6.681979e-11 0.000000e+00  1.188093e-08 -7.253735e-11 0.000000e+00  1.194801e-08 -8.334282e-11 0.000000e+00  1.202940e-08 -9.889338e-11 0.000000e+00  1.212871e-08 -1.187409e-10 0.000000e+00  1.224729e-08 -1.423306e-10 0.000000e+00  1.239072e-08 -1.690781e-10 0.000000e+00  1.256582e-08 -1.983898e-10 0.000000e+00  1.277385e-08 -2.295706e-10 0.000000e+00  1.301328e-08 -2.618290e-10 0.000000e+00  1.328685e-08 -2.944215e-10 0.000000e+00  1.359872e-08 -3.266590e-10 0.000000e+00  1.394694e-08 -3.577430e-10 0.000000e+00  1.432630e-08 -3.867937e-10 0.000000e+00  1.473629e-08 -4.130659e-10 0.000000e+00  1.517827e-08 -4.359236e-10 0.000000e+00  1.564684e-08 -4.546137e-10 0.000000e+00  1.613298e-08 -4.683283e-10 0.000000e+00  1.663319e-08 -4.764684e-10 0.000000e+00  1.714644e-08 -4.785793e-10 0.000000e+00  1.766434e-08 -4.740954e-10 0.000000e+00  1.817460e-08 -4.624364e-10 0.000000e+00  1.867156e-08 -4.432718e-10 0.000000e+00  1.915274e-08 -4.164218e-10 0.000000e+00  1.960775e-08 -3.816255e-10 0.000000e+00  2.002225e-08 -3.386604e-10 0.000000e+00  2.038971e-08 -2.875443e-10 0.000000e+00  2.070743e-08 -2.284174e-10 0.000000e+00  2.096446e-08 -1.613991e-10 0.000000e+00  2.114615e-08 -8.670873e-11 0.000000e+00  2.124664e-08 -4.737958e-12 0.000000e+00  2.126430e-08 8.406226e-11 0.000000e+00  2.118936e-08 1.791697e-10 0.000000e+00  2.100887e-08 2.798977e-10 0.000000e+00  2.071916e-08 3.855134e-10 0.000000e+00  2.032087e-08 4.953151e-10 0.000000e+00  1.980711e-08 6.084127e-10 0.000000e+00  1.916869e-08 7.236922e-10 0.000000e+00  1.840544e-08 8.401665e-10 0.000000e+00  1.752111e-08 9.569865e-10 0.000000e+00  1.651318e-08 1.072986e-09 0.000000e+00  1.537797e-08 1.186730e-09 0.000000e+00  1.411969e-08 1.297113e-09 0.000000e+00  1.274553e-08 1.403275e-09 0.000000e+00  1.125835e-08 1.503918e-09 0.000000e+00  9.661218e-09 1.597460e-09 0.000000e+00  7.962903e-09 1.682849e-09 0.000000e+00  6.173801e-09 1.759375e-09 0.000000e+00  4.302475e-09 1.825802e-09 0.000000e+00  2.359057e-09 1.880630e-09 0.000000e+00  3.563375e-10 1.923058e-09 0.000000e+00  -1.693030e-09 1.952702e-09 0.000000e+00  -3.775359e-09 1.968609e-09 0.000000e+00  -5.874186e-09 1.969626e-09 0.000000e+00  -7.974120e-09 1.955409e-09 0.000000e+00  -1.006187e-08 1.926051e-09 0.000000e+00  -1.212021e-08 1.881109e-09 0.000000e+00  -1.412827e-08 1.820028e-09 0.000000e+00  -1.607026e-08 1.743078e-09 0.000000e+00  -1.793447e-08 1.650933e-09 0.000000e+00  -1.970257e-08 1.543821e-09 0.000000e+00  -2.135227e-08 1.421965e-09 0.000000e+00  -2.287016e-08 1.286318e-09 0.000000e+00  -2.424848e-08 1.138133e-09 0.000000e+00  -2.547090e-08 9.783686e-10 0.000000e+00  -2.651728e-08 8.080884e-10 0.000000e+00  -2.737942e-08 6.288780e-10 0.000000e+00  -2.805573e-08 4.424710e-10 0.000000e+00  -2.853504e-08 2.505059e-10 0.000000e+00  -2.880302e-08 5.482855e-11 0.000000e+00  -2.885909e-08 -1.424814e-10 0.000000e+00  -2.870955e-08 -3.393657e-10 0.000000e+00  -2.835115e-08 -5.336316e-10 0.000000e+00  -2.777865e-08 -7.227965e-10 0.000000e+00  -2.700085e-08 -9.044634e-10 0.000000e+00  -2.603292e-08 -1.076410e-09 0.000000e+00  -2.488172e-08 -1.236055e-09 0.000000e+00  -2.355364e-08 -1.380483e-09 0.000000e+00  -2.206782e-08 -1.507168e-09 0.000000e+00  -2.044873e-08 -1.613872e-09 0.000000e+00  -1.871479e-08 -1.697835e-09 0.000000e+00  -1.688552e-08 -1.756015e-09 0.000000e+00  -1.499065e-08 -1.786020e-09 0.000000e+00  -1.306380e-08 -1.785851e-09 0.000000e+00  -1.113544e-08 -1.753050e-09 0.000000e+00  -9.238223e-09 -1.685195e-09 0.000000e+00  -7.411575e-09 -1.580952e-09 0.000000e+00  -5.697181e-09 -1.440083e-09 0.000000e+00  -4.135922e-09 -1.262512e-09 0.000000e+00  -2.771214e-09 -1.048643e-09 0.000000e+00  -1.652171e-09 -8.059335e-10 0.000000e+00  -8.307387e-10 -5.449876e-10 0.000000e+00  -3.749142e-10 -3.445624e-10 0.000000e+00  -2.830009e-10 -3.593758e-10 0.000000e+00  -5.811005e-11 1.818475e-11 0.000000e+00  8.127291e-07 -8.107649e-07 0.000000e+00  2.116299e-06 -7.621434e-07 0.000000e+00  2.707235e-06 -1.549212e-07 0.000000e+00  1.886892e-06 6.989485e-07 0.000000e+00  -6.332479e-07 1.631014e-06 0.000000e+00  -4.913625e-06 2.543982e-06 0.000000e+00  -1.086999e-05 3.381705e-06 0.000000e+00  -1.833345e-05 4.112272e-06 0.000000e+00  -2.708647e-05 4.718589e-06 0.000000e+00  -3.688628e-05 5.193283e-06 0.000000e+00  -4.748082e-05 5.535628e-06 0.000000e+00  -5.861998e-05 5.749578e-06 0.000000e+00  -7.006738e-05 5.842761e-06 0.000000e+00  -8.158708e-05 5.824017e-06 0.000000e+00  -9.298109e-05 5.705381e-06 0.000000e+00  -1.040786e-04 5.499942e-06 0.000000e+00  -1.147137e-04 5.220374e-06 0.000000e+00  -1.247420e-04 4.879761e-06 0.000000e+00  -1.340694e-04 4.492161e-06 0.000000e+00  -1.426309e-04 4.071261e-06 0.000000e+00  -1.503596e-04 3.629414e-06 0.000000e+00  -1.572097e-04 3.178424e-06 0.000000e+00  -1.631884e-04 2.730009e-06 0.000000e+00  -1.683271e-04 2.294840e-06 0.000000e+00  -1.726429e-04 1.881969e-06 0.000000e+00  -1.761682e-04 1.499468e-06 0.000000e+00  -1.789858e-04 1.154723e-06 0.000000e+00  -1.811925e-04 8.538328e-07 0.000000e+00  -1.828591e-04 6.013716e-07 0.000000e+00  -1.840634e-04 4.008372e-07 0.000000e+00  -1.849269e-04 2.547692e-07 0.000000e+00  -1.855755e-04 1.644615e-07 0.000000e+00  -1.860979e-04 1.300198e-07 0.000000e+00  -1.865821e-04 1.506053e-07 0.000000e+00  -1.871521e-04 2.243667e-07 0.000000e+00  -1.879271e-04 3.484341e-07 0.000000e+00  -1.889819e-04 5.192223e-07 0.000000e+00  -1.903840e-04 7.324668e-07 0.000000e+00  -1.922293e-04 9.829739e-07 0.000000e+00  -1.946022e-04 1.264854e-06 0.000000e+00  -1.975389e-04 1.572030e-06 0.000000e+00  -2.010647e-04 1.898071e-06 0.000000e+00  -2.052264e-04 2.235772e-06 0.000000e+00  -2.100550e-04 2.577594e-06 0.000000e+00  -2.155343e-04 2.916337e-06 0.000000e+00  -2.216354e-04 3.244793e-06 0.000000e+00  -2.283459e-04 3.555174e-06 0.000000e+00  -2.356363e-04 3.839725e-06 0.000000e+00  -2.434345e-04 4.091533e-06 0.000000e+00  -2.516573e-04 4.304013e-06 0.000000e+00  -2.602338e-04 4.470214e-06 0.000000e+00  -2.690780e-04 4.583568e-06 0.000000e+00  -2.780695e-04 4.638789e-06 0.000000e+00  -2.870807e-04 4.631220e-06 0.000000e+00  -2.959944e-04 4.556033e-06 0.000000e+00  -3.046821e-04 4.409068e-06 0.000000e+00  -3.129926e-04 4.187789e-06 0.000000e+00  -3.207732e-04 3.890505e-06 0.000000e+00  -3.278810e-04 3.515482e-06 0.000000e+00  -3.341675e-04 3.061842e-06 0.000000e+00  -3.394756e-04 2.530527e-06 0.000000e+00  -3.436533e-04 1.923419e-06 0.000000e+00  -3.465584e-04 1.242394e-06 0.000000e+00  -3.480502e-04 4.902412e-07 0.000000e+00  -3.479937e-04 -3.283965e-07 0.000000e+00  -3.462665e-04 -1.207974e-06 0.000000e+00  -3.427553e-04 -2.143018e-06 0.000000e+00  -3.373558e-04 -3.127221e-06 0.000000e+00  -3.299829e-04 -4.152552e-06 0.000000e+00  -3.205710e-04 -5.210252e-06 0.000000e+00  -3.090621e-04 -6.291796e-06 0.000000e+00  -2.954130e-04 -7.388034e-06 0.000000e+00  -2.796124e-04 -8.488386e-06 0.000000e+00  -2.616727e-04 -9.581833e-06 0.000000e+00  -2.416113e-04 -1.065785e-05 0.000000e+00  -2.194639e-04 -1.170562e-05 0.000000e+00  -1.953078e-04 -1.271331e-05 0.000000e+00  -1.692458e-04 -1.366908e-05 0.000000e+00  -1.413802e-04 -1.456190e-05 0.000000e+00  -1.118327e-04 -1.538089e-05 0.000000e+00  -8.077225e-05 -1.611471e-05 0.000000e+00  -4.839116e-05 -1.675252e-05 0.000000e+00  -1.487361e-05 -1.728468e-05 0.000000e+00  1.957995e-05 -1.770216e-05 0.000000e+00  5.472107e-05 -1.799620e-05 0.000000e+00  9.028362e-05 -1.815902e-05 0.000000e+00  1.260208e-04 -1.818444e-05 0.000000e+00  1.616764e-04 -1.806743e-05 0.000000e+00  1.969504e-04 -1.780380e-05 0.000000e+00  2.315354e-04 -1.739088e-05 0.000000e+00  2.651565e-04 -1.682784e-05 0.000000e+00  2.975400e-04 -1.611535e-05 0.000000e+00  3.283773e-04 -1.525543e-05 0.000000e+00  3.573651e-04 -1.425191e-05 0.000000e+00  3.842476e-04 -1.311042e-05 0.000000e+00  4.087818e-04 -1.183818e-05 0.000000e+00  4.307022e-04 -1.044407e-05 0.000000e+00  4.497622e-04 -8.938699e-06 0.000000e+00  4.657762e-04 -7.334173e-06 0.000000e+00  4.785832e-04 -5.644032e-06 0.000000e+00  4.880122e-04 -3.883461e-06 0.000000e+00  4.939245e-04 -2.069138e-06 0.000000e+00  4.962518e-04 -2.186977e-07 0.000000e+00  4.949599e-04 1.649149e-06 0.000000e+00  4.900178e-04 3.514130e-06 0.000000e+00  4.814365e-04 5.354833e-06 0.000000e+00  4.693027e-04 7.149508e-06 0.000000e+00  4.537443e-04 8.875694e-06 0.000000e+00  4.349036e-04 1.050944e-05 0.000000e+00  4.129732e-04 1.202600e-05 0.000000e+00  3.882209e-04 1.340082e-05 0.000000e+00  3.609602e-04 1.460894e-05 0.000000e+00  3.315305e-04 1.562391e-05 0.000000e+00  3.003260e-04 1.641869e-05 0.000000e+00  2.678122e-04 1.696693e-05 0.000000e+00  2.345020e-04 1.724207e-05 0.000000e+00  2.009449e-04 1.721617e-05 0.000000e+00  1.677463e-04 1.686128e-05 0.000000e+00  1.355722e-04 1.615133e-05 0.000000e+00  1.051305e-04 1.506193e-05 0.000000e+00  7.716283e-05 1.357123e-05 0.000000e+00  5.244152e-05 1.166575e-05 0.000000e+00  3.173828e-05 9.350794e-06 0.000000e+00  1.576512e-05 6.670048e-06 0.000000e+00  5.064044e-06 3.752778e-06 0.000000e+00  -2.347133e-07 9.354186e-07 0.000000e+00  -9.373381e-07 -9.359782e-07 0.000000e+00  -2.388701e-10 -2.084697e-10 0.000000e+00  -4.648453e-11 1.488356e-11 0.000000e+00  7.785602e-07 -2.124260e-06 0.000000e+00  1.562392e-06 -1.534119e-06 0.000000e+00  7.707876e-07 6.968859e-07 0.000000e+00  -2.497429e-06 3.756219e-06 0.000000e+00  -8.684364e-06 7.111156e-06 0.000000e+00  -1.790433e-05 1.042720e-05 0.000000e+00  -3.004265e-05 1.349806e-05 0.000000e+00  -4.483589e-05 1.619906e-05 0.000000e+00  -6.192700e-05 1.845930e-05 0.000000e+00  -8.090545e-05 2.024460e-05 0.000000e+00  -1.013363e-04 2.154661e-05 0.000000e+00  -1.227812e-04 2.237559e-05 0.000000e+00  -1.448222e-04 2.275644e-05 0.000000e+00  -1.670343e-04 2.271944e-05 0.000000e+00  -1.890616e-04 2.230757e-05 0.000000e+00  -2.105951e-04 2.156832e-05 0.000000e+00  -2.313292e-04 2.054797e-05 0.000000e+00  -2.509959e-04 1.929479e-05 0.000000e+00  -2.694205e-04 1.786108e-05 0.000000e+00  -2.864817e-04 1.629794e-05 0.000000e+00  -3.020497e-04 1.465158e-05 0.000000e+00  -3.160329e-04 1.296639e-05 0.000000e+00  -3.284409e-04 1.128660e-05 0.000000e+00  -3.393267e-04 9.652550e-06 0.000000e+00  -3.487143e-04 8.098493e-06 0.000000e+00  -3.566552e-04 6.655104e-06 0.000000e+00  -3.632976e-04 5.350555e-06 0.000000e+00  -3.688161e-04 4.208110e-06 0.000000e+00  -3.733334e-04 3.245260e-06 0.000000e+00  -3.769856e-04 2.475490e-06 0.000000e+00  -3.799934e-04 1.908670e-06 0.000000e+00  -3.825856e-04 1.549885e-06 0.000000e+00  -3.849193e-04 1.399703e-06 0.000000e+00  -3.871503e-04 1.455151e-06 0.000000e+00  -3.895049e-04 1.709386e-06 0.000000e+00  -3.922005e-04 2.151629e-06 0.000000e+00  -3.953691e-04 2.768386e-06 0.000000e+00  -3.991296e-04 3.543611e-06 0.000000e+00  -4.036571e-04 4.457679e-06 0.000000e+00  -4.091051e-04 5.488263e-06 0.000000e+00  -4.155349e-04 6.612346e-06 0.000000e+00  -4.229878e-04 7.805597e-06 0.000000e+00  -4.315482e-04 9.040691e-06 0.000000e+00  -4.412713e-04 1.028899e-05 0.000000e+00  -4.521215e-04 1.152321e-05 0.000000e+00  -4.640409e-04 1.271605e-05 0.000000e+00  -4.770042e-04 1.383798e-05 0.000000e+00  -4.909547e-04 1.485957e-05 0.000000e+00  -5.057545e-04 1.575467e-05 0.000000e+00  -5.212451e-04 1.649842e-05 0.000000e+00  -5.372942e-04 1.706452e-05 0.000000e+00  -5.537406e-04 1.742812e-05 0.000000e+00  -5.703582e-04 1.756935e-05 0.000000e+00  -5.869078e-04 1.747077e-05 0.000000e+00  -6.031718e-04 1.711422e-05 0.000000e+00  -6.189116e-04 1.648409e-05 0.000000e+00  -6.338458e-04 1.557107e-05 0.000000e+00  -6.476907e-04 1.436908e-05 0.000000e+00  -6.601822e-04 1.287179e-05 0.000000e+00  -6.710466e-04 1.107613e-05 0.000000e+00  -6.799932e-04 8.986108e-06 0.000000e+00  -6.867425e-04 6.609255e-06 0.000000e+00  -6.910331e-04 3.953017e-06 0.000000e+00  -6.926075e-04 1.028322e-06 0.000000e+00  -6.912186e-04 -2.146749e-06 0.000000e+00  -6.866439e-04 -5.550717e-06 0.000000e+00  -6.786780e-04 -9.162471e-06 0.000000e+00  -6.671321e-04 -1.295771e-05 0.000000e+00  -6.518544e-04 -1.690552e-05 0.000000e+00  -6.327296e-04 -2.097224e-05 0.000000e+00  -6.096566e-04 -2.512523e-05 0.000000e+00  -5.825612e-04 -2.932946e-05 0.000000e+00  -5.514302e-04 -3.354441e-05 0.000000e+00  -5.162950e-04 -3.772794e-05 0.000000e+00  -4.771946e-04 -4.183996e-05 0.000000e+00  -4.342024e-04 -4.583919e-05 0.000000e+00  -3.874702e-04 -4.968056e-05 0.000000e+00  -3.371978e-04 -5.331896e-05 0.000000e+00  -2.835820e-04 -5.671256e-05 0.000000e+00  -2.268551e-04 -5.982002e-05 0.000000e+00  -1.673388e-04 -6.259833e-05 0.000000e+00  -1.053987e-04 -6.500639e-05 0.000000e+00  -4.138213e-05 -6.700780e-05 0.000000e+00  2.433400e-05 -6.856857e-05 0.000000e+00  9.128140e-05 -6.965555e-05 0.000000e+00  1.589593e-04 -7.023951e-05 0.000000e+00  2.269062e-04 -7.029740e-05 0.000000e+00  2.946440e-04 -6.981040e-05 0.000000e+00  3.616111e-04 -6.876303e-05 0.000000e+00  4.272318e-04 -6.714553e-05 0.000000e+00  4.909958e-04 -6.495522e-05 0.000000e+00  5.523946e-04 -6.219503e-05 0.000000e+00  6.108532e-04 -5.887313e-05 0.000000e+00  6.658063e-04 -5.500445e-05 0.000000e+00  7.167810e-04 -5.061088e-05 0.000000e+00  7.633292e-04 -4.572034e-05 0.000000e+00  8.049573e-04 -4.036695e-05 0.000000e+00  8.412084e-04 -3.459150e-05 0.000000e+00  8.717418e-04 -2.844053e-05 0.000000e+00  8.962633e-04 -2.196590e-05 0.000000e+00  9.144579e-04 -1.522581e-05 0.000000e+00  9.260703e-04 -8.284158e-06 0.000000e+00  9.309800e-04 -1.208470e-06 0.000000e+00  9.291305e-04 5.929682e-06 0.000000e+00  9.204681e-04 1.305275e-05 0.000000e+00  9.050179e-04 2.007887e-05 0.000000e+00  8.829489e-04 2.692495e-05 0.000000e+00  8.545063e-04 3.350534e-05 0.000000e+00  8.199602e-04 3.972876e-05 0.000000e+00  7.796728e-04 4.550104e-05 0.000000e+00  7.341493e-04 5.072917e-05 0.000000e+00  6.839780e-04 5.531885e-05 0.000000e+00  6.297912e-04 5.917057e-05 0.000000e+00  5.723208e-04 6.218336e-05 0.000000e+00  5.124298e-04 6.425990e-05 0.000000e+00  4.510635e-04 6.530338e-05 0.000000e+00  3.892249e-04 6.521361e-05 0.000000e+00  3.280104e-04 6.389319e-05 0.000000e+00  2.686156e-04 6.125558e-05 0.000000e+00  2.122928e-04 5.722581e-05 0.000000e+00  1.603257e-04 5.174580e-05 0.000000e+00  1.140160e-04 4.479859e-05 0.000000e+00  7.461859e-05 3.644876e-05 0.000000e+00  4.322557e-05 2.690864e-05 0.000000e+00  2.059157e-05 1.668169e-05 0.000000e+00  6.835905e-06 6.868711e-06 0.000000e+00  9.189687e-07 -2.424430e-07 0.000000e+00  -2.322364e-10 -2.785570e-10 0.000000e+00  9.460772e-12 -2.893840e-11 0.000000e+00  1.875937e-07 -2.749431e-06 0.000000e+00  -6.427421e-07 -7.475105e-07 0.000000e+00  -4.046180e-06 4.089851e-06 0.000000e+00  -1.091995e-05 1.041946e-05 0.000000e+00  -2.171786e-05 1.731256e-05 0.000000e+00  -3.654585e-05 2.414446e-05 0.000000e+00  -5.525219e-05 3.050477e-05 0.000000e+00  -7.750245e-05 3.613241e-05 0.000000e+00  -1.028396e-04 4.087135e-05 0.000000e+00  -1.307314e-04 4.464057e-05 0.000000e+00  -1.606075e-04 4.741366e-05 0.000000e+00  -1.918870e-04 4.920444e-05 0.000000e+00  -2.240126e-04 5.005900e-05 0.000000e+00  -2.564081e-04 5.003576e-05 0.000000e+00  -2.885933e-04 4.922142e-05 0.000000e+00  -3.201489e-04 4.771310e-05 0.000000e+00  -3.506530e-04 4.560613e-05 0.000000e+00  -3.797328e-04 4.300063e-05 0.000000e+00  -4.071469e-04 4.000611e-05 0.000000e+00  -4.327259e-04 3.673002e-05 0.000000e+00  -4.562831e-04 3.326966e-05 0.000000e+00  -4.776834e-04 2.971879e-05 0.000000e+00  -4.969356e-04 2.617131e-05 0.000000e+00  -5.141086e-04 2.271299e-05 0.000000e+00  -5.292257e-04 1.941675e-05 0.000000e+00  -5.423482e-04 1.634802e-05 0.000000e+00  -5.536762e-04 1.356713e-05 0.000000e+00  -5.634467e-04 1.112397e-05 0.000000e+00  -5.718200e-04 9.056114e-06 0.000000e+00  -5.789746e-04 7.392659e-06 0.000000e+00  -5.852120e-04 6.155036e-06 0.000000e+00  -5.908453e-04 5.354434e-06 0.000000e+00  -5.960830e-04 4.992369e-06 0.000000e+00  -6.011322e-04 5.062807e-06 0.000000e+00  -6.063030e-04 5.551409e-06 0.000000e+00  -6.118937e-04 6.435358e-06 0.000000e+00  -6.180785e-04 7.686041e-06 0.000000e+00  -6.250143e-04 9.269391e-06 0.000000e+00  -6.329408e-04 1.114359e-05 0.000000e+00  -6.420677e-04 1.326099e-05 0.000000e+00  -6.524720e-04 1.557252e-05 0.000000e+00  -6.642032e-04 1.802632e-05 0.000000e+00  -6.773753e-04 2.056402e-05 0.000000e+00  -6.920615e-04 2.312438e-05 0.000000e+00  -7.082050e-04 2.564923e-05 0.000000e+00  -7.257178e-04 2.808039e-05 0.000000e+00  -7.445618e-04 3.035478e-05 0.000000e+00  -7.646550e-04 3.240954e-05 0.000000e+00  -7.857989e-04 3.418905e-05 0.000000e+00  -8.077673e-04 3.564049e-05 0.000000e+00  -8.303736e-04 3.670782e-05 0.000000e+00  -8.533915e-04 3.733815e-05 0.000000e+00  -8.765014e-04 3.748950e-05 0.000000e+00  -8.993668e-04 3.712513e-05 0.000000e+00  -9.216838e-04 3.620660e-05 0.000000e+00  -9.431199e-04 3.470099e-05 0.000000e+00  -9.632811e-04 3.258911e-05 0.000000e+00  -9.817717e-04 2.985870e-05 0.000000e+00  -9.982253e-04 2.649682e-05 0.000000e+00  -1.012262e-03 2.249755e-05 0.000000e+00  -1.023480e-03 1.787029e-05 0.000000e+00  -1.031490e-03 1.263208e-05 0.000000e+00  -1.035934e-03 6.799544e-06 0.000000e+00  -1.036457e-03 3.967382e-07 0.000000e+00  -1.032719e-03 -6.536722e-06 0.000000e+00  -1.024417e-03 -1.395395e-05 0.000000e+00  -1.011271e-03 -2.180911e-05 0.000000e+00  -9.930243e-04 -3.004959e-05 0.000000e+00  -9.694744e-04 -3.860835e-05 0.000000e+00  -9.404696e-04 -4.741258e-05 0.000000e+00  -9.058772e-04 -5.639194e-05 0.000000e+00  -8.656028e-04 -6.547100e-05 0.000000e+00  -8.196385e-04 -7.456240e-05 0.000000e+00  -7.680392e-04 -8.357547e-05 0.000000e+00  -7.108692e-04 -9.242414e-05 0.000000e+00  -6.482397e-04 -1.010199e-04 0.000000e+00  -5.803745e-04 -1.092661e-04 0.000000e+00  -5.075641e-04 -1.170660e-04 0.000000e+00  -4.300921e-04 -1.243302e-04 0.000000e+00  -3.482910e-04 -1.309704e-04 0.000000e+00  -2.626208e-04 -1.368948e-04 0.000000e+00  -1.736027e-04 -1.420156e-04 0.000000e+00  -8.172831e-05 -1.462555e-04 0.000000e+00  1.247014e-05 -1.495423e-04 0.000000e+00  1.083300e-04 -1.518055e-04 0.000000e+00  2.051435e-04 -1.529834e-04 0.000000e+00  3.022629e-04 -1.530272e-04 0.000000e+00  3.990177e-04 -1.518976e-04 0.000000e+00  4.946177e-04 -1.495622e-04 0.000000e+00  5.882540e-04 -1.460010e-04 0.000000e+00  6.792136e-04 -1.412092e-04 0.000000e+00  7.667876e-04 -1.351940e-04 0.000000e+00  8.501695e-04 -1.279736e-04 0.000000e+00  9.285683e-04 -1.195810e-04 0.000000e+00  1.001326e-03 -1.100640e-04 0.000000e+00  1.067822e-03 -9.948307e-05 0.000000e+00  1.127365e-03 -8.791224e-05 0.000000