<?xml version="1.0"?>
<VTKFile type="UnstructuredGrid"  version="0.1"  >
<UnstructuredGrid>
<Piece  NumberOfPoints="16641" NumberOfCells="32768">
<Points>
<DataArray  type="Float32"  NumberOfComponents="3"  format="ascii">0 0 0  0.0078125 0 0  0.015625 0 0  0.0234375 0 0  0.03125 0 0  0.0390625 0 0  0.046875 0 0  0.0546875 0 0  0.0625 0 0  0.0703125 0 0  0.078125 0 0  0.0859375 0 0  0.09375 0 0  0.101562 0 0  0.109375 0 0  0.117188 0 0  0.125 0 0  0.132812 0 0  0.140625 0 0  0.148438 0 0  0.15625 0 0  0.164062 0 0  0.171875 0 0  0.179688 0 0  0.1875 0 0  0.195312 0 0  0.203125 0 0  0.210938 0 0  0.21875 0 0  0.226562 0 0  0.234375 0 0  0.242188 0 0  0.25 0 0  0.257812 0 0  0.265625 0 0  0.273438 0 0  0.28125 0 0  0.289062 0 0  0.296875 0 0  0.304688 0 0  0.3125 0 0  0.320312 0 0  0.328125 0 0  0.335938 0 0  0.34375 0 0  0.351562 0 0  0.359375 0 0  0.367188 0 0  0.375 0 0  0.382812 0 0  0.390625 0 0  0.398438 0 0  0.40625 0 0  0.414062 0 0  0.421875 0 0  0.429688 0 0  0.4375 0 0  0.445312 0 0  0.453125 0 0  0.460938 0 0  0.46875 0 0  0.476562 0 0  0.484375 0 0  0.492188 0 0  0.5 0 0  0.507812 0 0  0.515625 0 0  0.523438 0 0  0.53125 0 0  0.539062 0 0  0.546875 0 0  0.554688 0 0  0.5625 0 0  0.570312 0 0  0.578125 0 0  0.585938 0 0  0.59375 0 0  0.601562 0 0  0.609375 0 0  0.617188 0 0  0.625 0 0  0.632812 0 0  0.640625 0 0  0.648438 0 0  0.65625 0 0  0.664062 0 0  0.671875 0 0  0.679688 0 0  0.6875 0 0  0.695312 0 0  0.703125 0 0  0.710938 0 0  0.71875 0 0  0.726562 0 0  0.734375 0 0  0.742188 0 0  0.75 0 0  0.757812 0 0  0.765625 0 0  0.773438 0 0  0.78125 0 0  0.789062 0 0  0.796875 0 0  0.804688 0 0  0.8125 0 0  0.820312 0 0  0.828125 0 0  0.835938 0 0  0.84375 0 0  0.851562 0 0  0.859375 0 0  0.867188 0 0  0.875 0 0  0.882812 0 0  0.890625 0 0  0.898438 0 0  0.90625 0 0  0.914062 0 0  0.921875 0 0  0.929688 0 0  0.9375 0 0  0.945312 0 0  0.953125 0 0  0.960938 0 0  0.96875 0 0  0.976562 0 0  0.984375 0 0  0.992188 0 0  1 0 0  0 0.0078125 0  0.0078125 0.0078125 0  0.015625 0.0078125 0  0.0234375 0.0078125 0  0.03125 0.0078125 0  0.0390625 0.0078125 0  0.046875 0.0078125 0  0.0546875 0.0078125 0  0.0625 0.0078125 0  0.0703125 0.0078125 0  0.078125 0.0078125 0  0.0859375 0.0078125 0  0.09375 0.0078125 0  0.101562 0.0078125 0  0.109375 0.0078125 0  0.117188 0.0078125 0  0.125 0.0078125 0  0.132812 0.0078125 0  0.140625 0.0078125 0  0.148438 0.0078125 0  0.15625 0.0078125 0  0.164062 0.0078125 0  0.171875 0.0078125 0  0.179688 0.0078125 0  0.1875 0.0078125 0  0.195312 0.0078125 0  0.203125 0.0078125 0  0.210938 0.0078125 0  0.21875 0.0078125 0  0.226562 0.0078125 0  0.234375 0.0078125 0  0.242188 0.0078125 0  0.25 0.0078125 0  0.257812 0.0078125 0  0.265625 0.0078125 0  0.273438 0.0078125 0  0.28125 0.0078125 0  0.289062 0.0078125 0  0.296875 0.0078125 0  0.304688 0.0078125 0  0.3125 0.0078125 0  0.320312 0.0078125 0  0.328125 0.0078125 0  0.335938 0.0078125 0  0.34375 0.0078125 0  0.351562 0.0078125 0  0.359375 0.0078125 0  0.367188 0.0078125 0  0.375 0.0078125 0  0.382812 0.0078125 0  0.390625 0.0078125 0  0.398438 0.0078125 0  0.40625 0.0078125 0  0.414062 0.0078125 0  0.421875 0.0078125 0  0.429688 0.0078125 0  0.4375 0.0078125 0  0.445312 0.0078125 0  0.453125 0.0078125 0  0.460938 0.0078125 0  0.46875 0.0078125 0  0.476562 0.0078125 0  0.484375 0.0078125 0  0.492188 0.0078125 0  0.5 0.0078125 0  0.507812 0.0078125 0  0.515625 0.0078125 0  0.523438 0.0078125 0  0.53125 0.0078125 0  0.539062 0.0078125 0  0.546875 0.0078125 0  0.554688 0.0078125 0  0.5625 0.0078125 0  0.570312 0.0078125 0  0.578125 0.0078125 0  0.585938 0.0078125 0  0.59375 0.0078125 0  0.601562 0.0078125 0  0.609375 0.0078125 0  0.617188 0.0078125 0  0.625 0.0078125 0  0.632812 0.0078125 0  0.640625 0.0078125 0  0.648438 0.0078125 0  0.65625 0.0078125 0  0.664062 0.0078125 0  0.671875 0.0078125 0  0.679688 0.0078125 0  0.6875 0.0078125 0  0.695312 0.0078125 0  0.703125 0.0078125 0  0.710938 0.0078125 0  0.71875 0.0078125 0  0.726562 0.0078125 0  0.734375 0.0078125 0  0.742188 0.0078125 0  0.75 0.0078125 0  0.757812 0.0078125 0  0.765625 0.0078125 0  0.773438 0.0078125 0  0.78125 0.0078125 0  0.789062 0.0078125 0  0.796875 0.0078125 0  0.804688 0.0078125 0  0.8125 0.0078125 0  0.820312 0.0078125 0  0.828125 0.0078125 0  0.835938 0.0078125 0  0.84375 0.0078125 0  0.851562 0.0078125 0  0.859375 0.0078125 0  0.867188 0.0078125 0  0.875 0.0078125 0  0.882812 0.0078125 0  0.890625 0.0078125 0  0.898438 0.0078125 0  0.90625 0.0078125 0  0.914062 0.0078125 0  0.921875 0.0078125 0  0.929688 0.0078125 0  0.9375 0.0078125 0  0.945312 0.0078125 0  0.953125 0.0078125 0  0.960938 0.0078125 0  0.96875 0.0078125 0  0.976562 0.0078125 0  0.984375 0.0078125 0  0.992188 0.0078125 0  1 0.0078125 0  0 0.015625 0  0.0078125 0.015625 0  0.015625 0.015625 0  0.0234375 0.015625 0  0.03125 0.015625 0  0.0390625 0.015625 0  0.046875 0.015625 0  0.0546875 0.015625 0  0.0625 0.015625 0  0.0703125 0.015625 0  0.078125 0.015625 0  0.0859375 0.015625 0  0.09375 0.015625 0  0.101562 0.015625 0  0.109375 0.015625 0  0.117188 0.015625 0  0.125 0.015625 0  0.132812 0.015625 0  0.140625 0.015625 0  0.148438 0.015625 0  0.15625 0.015625 0  0.164062 0.015625 0  0.171875 0.015625 0  0.179688 0.015625 0  0.1875 0.015625 0  0.195312 0.015625 0  0.203125 0.015625 0  0.210938 0.015625 0  0.21875 0.015625 0  0.226562 0.015625 0  0.234375 0.015625 0  0.242188 0.015625 0  0.25 0.015625 0  0.257812 0.015625 0  0.265625 0.015625 0  0.273438 0.015625 0  0.28125 0.015625 0  0.289062 0.015625 0  0.296875 0.015625 0  0.304688 0.015625 0  0.3125 0.015625 0  0.320312 0.015625 0  0.328125 0.015625 0  0.335938 0.015625 0  0.34375 0.015625 0  0.351562 0.015625 0  0.359375 0.015625 0  0.367188 0.015625 0  0.375 0.015625 0  0.382812 0.015625 0  0.390625 0.015625 0  0.398438 0.015625 0  0.40625 0.015625 0  0.414062 0.015625 0  0.421875 0.015625 0  0.429688 0.015625 0  0.4375 0.015625 0  0.445312 0.015625 0  0.453125 0.015625 0  0.460938 0.015625 0  0.46875 0.015625 0  0.476562 0.015625 0  0.484375 0.015625 0  0.492188 0.015625 0  0.5 0.015625 0  0.507812 0.015625 0  0.515625 0.015625 0  0.523438 0.015625 0  0.53125 0.015625 0  0.539062 0.015625 0  0.546875 0.015625 0  0.554688 0.015625 0  0.5625 0.015625 0  0.570312 0.015625 0  0.578125 0.015625 0  0.585938 0.015625 0  0.59375 0.015625 0  0.601562 0.015625 0  0.609375 0.015625 0  0.617188 0.015625 0  0.625 0.015625 0  0.632812 0.015625 0  0.640625 0.015625 0  0.648438 0.015625 0  0.65625 0.015625 0  0.664062 0.015625 0  0.671875 0.015625 0  0.679688 0.015625 0  0.6875 0.015625 0  0.695312 0.015625 0  0.703125 0.015625 0  0.710938 0.015625 0  0.71875 0.015625 0  0.726562 0.015625 0  0.734375 0.015625 0  0.742188 0.015625 0  0.75 0.015625 0  0.757812 0.015625 0  0.765625 0.015625 0  0.773438 0.015625 0  0.78125 0.015625 0  0.789062 0.015625 0  0.796875 0.015625 0  0.804688 0.015625 0  0.8125 0.015625 0  0.820312 0.015625 0  0.828125 0.015625 0  0.835938 0.015625 0  0.84375 0.015625 0  0.851562 0.015625 0  0.859375 0.015625 0  0.867188 0.015625 0  0.875 0.015625 0  0.882812 0.015625 0  0.890625 0.015625 0  0.898438 0.015625 0  0.90625 0.015625 0  0.914062 0.015625 0  0.921875 0.015625 0  0.929688 0.015625 0  0.9375 0.015625 0  0.945312 0.015625 0  0.953125 0.015625 0  0.960938 0.015625 0  0.96875 0.015625 0  0.976562 0.015625 0  0.984375 0.015625 0  0.992188 0.015625 0  1 0.015625 0  0 0.0234375 0  0.0078125 0.0234375 0  0.015625 0.0234375 0  0.0234375 0.0234375 0  0.03125 0.0234375 0  0.0390625 0.0234375 0  0.046875 0.0234375 0  0.0546875 0.0234375 0  0.0625 0.0234375 0  0.0703125 0.0234375 0  0.078125 0.0234375 0  0.0859375 0.0234375 0  0.09375 0.0234375 0  0.101562 0.0234375 0  0.109375 0.0234375 0  0.117188 0.0234375 0  0.125 0.0234375 0  0.132812 0.0234375 0  0.140625 0.0234375 0  0.148438 0.0234375 0  0.15625 0.0234375 0  0.164062 0.0234375 0  0.171875 0.0234375 0  0.179688 0.0234375 0  0.1875 0.0234375 0  0.195312 0.0234375 0  0.203125 0.0234375 0  0.210938 0.0234375 0  0.21875 0.0234375 0  0.226562 0.0234375 0  0.234375 0.0234375 0  0.242188 0.0234375 0  0.25 0.0234375 0  0.257812 0.0234375 0  0.265625 0.0234375 0  0.273438 0.0234375 0  0.28125 0.0234375 0  0.289062 0.0234375 0  0.296875 0.0234375 0  0.304688 0.0234375 0  0.3125 0.0234375 0  0.320312 0.0234375 0  0.328125 0.0234375 0  0.335938 0.0234375 0  0.34375 0.0234375 0  0.351562 0.0234375 0  0.359375 0.0234375 0  0.367188 0.0234375 0  0.375 0.0234375 0  0.382812 0.0234375 0  0.390625 0.0234375 0  0.398438 0.0234375 0  0.40625 0.0234375 0  0.414062 0.0234375 0  0.421875 0.0234375 0  0.429688 0.0234375 0  0.4375 0.0234375 0  0.445312 0.0234375 0  0.453125 0.0234375 0  0.460938 0.0234375 0  0.46875 0.0234375 0  0.476562 0.0234375 0  0.484375 0.0234375 0  0.492188 0.0234375 0  0.5 0.0234375 0  0.507812 0.0234375 0  0.515625 0.0234375 0  0.523438 0.0234375 0  0.53125 0.0234375 0  0.539062 0.0234375 0  0.546875 0.0234375 0  0.554688 0.0234375 0  0.5625 0.0234375 0  0.570312 0.0234375 0  0.578125 0.0234375 0  0.585938 0.0234375 0  0.59375 0.0234375 0  0.601562 0.0234375 0  0.609375 0.0234375 0  0.617188 0.0234375 0  0.625 0.0234375 0  0.632812 0.0234375 0  0.640625 0.0234375 0  0.648438 0.0234375 0  0.65625 0.0234375 0  0.664062 0.0234375 0  0.671875 0.0234375 0  0.679688 0.0234375 0  0.6875 0.0234375 0  0.695312 0.0234375 0  0.703125 0.0234375 0  0.710938 0.0234375 0  0.71875 0.0234375 0  0.726562 0.0234375 0  0.734375 0.0234375 0  0.742188 0.0234375 0  0.75 0.0234375 0  0.757812 0.0234375 0  0.765625 0.0234375 0  0.773438 0.0234375 0  0.78125 0.0234375 0  0.789062 0.0234375 0  0.796875 0.0234375 0  0.804688 0.0234375 0  0.8125 0.0234375 0  0.820312 0.0234375 0  0.828125 0.0234375 0  0.835938 0.0234375 0  0.84375 0.0234375 0  0.851562 0.0234375 0  0.859375 0.0234375 0  0.867188 0.0234375 0  0.875 0.0234375 0  0.882812 0.0234375 0  0.890625 0.0234375 0  0.898438 0.0234375 0  0.90625 0.0234375 0  0.914062 0.0234375 0  0.921875 0.0234375 0  0.929688 0.0234375 0  0.9375 0.0234375 0  0.945312 0.0234
[...]
<PointData  Vectors="u"> 
<DataArray  type="Float32"  Name="u"  NumberOfComponents="3" format="ascii">1.139863e-10 -5.285821e-11 0.000000e+00  5.189366e-11 -1.491393e-11 0.000000e+00  9.588020e-12 2.278537e-11 0.000000e+00  -4.289158e-11 -1.742927e-12 0.000000e+00  -4.605810e-11 -5.863917e-11 0.000000e+00  -3.376435e-12 -1.303794e-10 0.000000e+00  1.243429e-10 -2.133056e-10 0.000000e+00  3.476391e-10 -2.989367e-10 0.000000e+00  6.668827e-10 -3.806922e-10 0.000000e+00  1.076130e-09 -4.543002e-10 0.000000e+00  1.565454e-09 -5.172011e-10 0.000000e+00  2.122515e-09 -5.680088e-10 0.000000e+00  2.734209e-09 -6.062197e-10 0.000000e+00  3.385393e-09 -6.317174e-10 0.000000e+00  4.063991e-09 -6.452053e-10 0.000000e+00  4.756555e-09 -6.474082e-10 0.000000e+00  5.449376e-09 -6.391879e-10 0.000000e+00  6.131835e-09 -6.217835e-10 0.000000e+00  6.795949e-09 -5.966104e-10 0.000000e+00  7.432644e-09 -5.649313e-10 0.000000e+00  8.032796e-09 -5.279703e-10 0.000000e+00  8.591758e-09 -4.871356e-10 0.000000e+00  9.107932e-09 -4.438431e-10 0.000000e+00  9.577658e-09 -3.992851e-10 0.000000e+00  9.996962e-09 -3.545509e-10 0.000000e+00  1.036698e-08 -3.107765e-10 0.000000e+00  1.069172e-08 -2.690128e-10 0.000000e+00  1.097207e-08 -2.300967e-10 0.000000e+00  1.120817e-08 -1.947411e-10 0.000000e+00  1.140534e-08 -1.636142e-10 0.000000e+00  1.157128e-08 -1.372641e-10 0.000000e+00  1.170973e-08 -1.160633e-10 0.000000e+00  1.182311e-08 -1.002594e-10 0.000000e+00  1.191878e-08 -9.001503e-11 0.000000e+00  1.200598e-08 -8.538281e-11 0.000000e+00  1.208924e-08 -8.627914e-11 0.000000e+00  1.217130e-08 -9.250154e-11 0.000000e+00  1.225945e-08 -1.037729e-10 0.000000e+00  1.236248e-08 -1.197496e-10 0.000000e+00  1.248392e-08 -1.399749e-10 0.000000e+00  1.262496e-08 -1.638817e-10 0.000000e+00  1.279115e-08 -1.908810e-10 0.000000e+00  1.298937e-08 -2.203776e-10 0.000000e+00  1.322076e-08 -2.516683e-10 0.000000e+00  1.348358e-08 -2.839498e-10 0.000000e+00  1.378052e-08 -3.164758e-10 0.000000e+00  1.411580e-08 -3.485581e-10 0.000000e+00  1.448732e-08 -3.793929e-10 0.000000e+00  1.488959e-08 -4.080927e-10 0.000000e+00  1.532208e-08 -4.339133e-10 0.000000e+00  1.578620e-08 -4.562243e-10 0.000000e+00  1.627639e-08 -4.742714e-10 0.000000e+00  1.678333e-08 -4.872446e-10 0.000000e+00  1.730350e-08 -4.945502e-10 0.000000e+00  1.783596e-08 -4.957426e-10 0.000000e+00  1.837217e-08 -4.902592e-10 0.000000e+00  1.889952e-08 -4.775221e-10 0.000000e+00  1.941237e-08 -4.572089e-10 0.000000e+00  1.990837e-08 -4.291504e-10 0.000000e+00  2.037700e-08 -3.930914e-10 0.000000e+00  2.080362e-08 -3.488142e-10 0.000000e+00  2.118174e-08 -2.963461e-10 0.000000e+00  2.150885e-08 -2.358370e-10 0.000000e+00  2.177389e-08 -1.674134e-10 0.000000e+00  2.196194e-08 -9.130132e-11 0.000000e+00  2.206721e-08 -7.901350e-12 0.000000e+00  2.208831e-08 8.232699e-11 0.000000e+00  2.201538e-08 1.788542e-10 0.000000e+00  2.183523e-08 2.809859e-10 0.000000e+00  2.154431e-08 3.879811e-10 0.000000e+00  2.114353e-08 4.991319e-10 0.000000e+00  2.062594e-08 6.135412e-10 0.000000e+00  1.998213e-08 7.300875e-10 0.000000e+00  1.921210e-08 8.477778e-10 0.000000e+00  1.831987e-08 9.657601e-10 0.000000e+00  1.730288e-08 1.082863e-09 0.000000e+00  1.615731e-08 1.197648e-09 0.000000e+00  1.488751e-08 1.309006e-09 0.000000e+00  1.350096e-08 1.416079e-09 0.000000e+00  1.200051e-08 1.517571e-09 0.000000e+00  1.038908e-08 1.611897e-09 0.000000e+00  8.675583e-09 1.698008e-09 0.000000e+00  6.870689e-09 1.775204e-09 0.000000e+00  4.982935e-09 1.842253e-09 0.000000e+00  3.022312e-09 1.897656e-09 0.000000e+00  1.001733e-09 1.940621e-09 0.000000e+00  -1.065928e-09 1.970774e-09 0.000000e+00  -3.167031e-09 1.987169e-09 0.000000e+00  -5.285260e-09 1.988652e-09 0.000000e+00  -7.405139e-09 1.974885e-09 0.000000e+00  -9.513211e-09 1.945971e-09 0.000000e+00  -1.159230e-08 1.901464e-09 0.000000e+00  -1.362168e-08 1.840804e-09 0.000000e+00  -1.558551e-08 1.764260e-09 0.000000e+00  -1.747190e-08 1.672503e-09 0.000000e+00  -1.926260e-08 1.565752e-09 0.000000e+00  -2.093539e-08 1.444216e-09 0.000000e+00  -2.247677e-08 1.308837e-09 0.000000e+00  -2.387883e-08 1.160861e-09 0.000000e+00  -2.512523e-08 1.001232e-09 0.000000e+00  -2.619583e-08 8.309945e-10 0.000000e+00  -2.708228e-08 6.517245e-10 0.000000e+00  -2.778285e-08 4.651504e-10 0.000000e+00  -2.828625e-08 2.728997e-10 0.000000e+00  -2.857809e-08 7.680608e-11 0.000000e+00  -2.865762e-08 -1.210528e-10 0.000000e+00  -2.853097e-08 -3.186149e-10 0.000000e+00  -2.819475e-08 -5.136882e-10 0.000000e+00  -2.764362e-08 -7.037912e-10 0.000000e+00  -2.688620e-08 -8.865184e-10 0.000000e+00  -2.593754e-08 -1.059635e-09 0.000000e+00  -2.480438e-08 -1.220550e-09 0.000000e+00  -2.349299e-08 -1.366341e-09 0.000000e+00  -2.202243e-08 -1.494466e-09 0.000000e+00  -2.041705e-08 -1.602669e-09 0.000000e+00  -1.869522e-08 -1.688176e-09 0.000000e+00  -1.687640e-08 -1.747929e-09 0.000000e+00  -1.499030e-08 -1.779515e-09 0.000000e+00  -1.307050e-08 -1.780914e-09 0.000000e+00  -1.114749e-08 -1.749644e-09 0.000000e+00  -9.253933e-09 -1.683256e-09 0.000000e+00  -7.429324e-09 -1.580382e-09 0.000000e+00  -5.715436e-09 -1.440747e-09 0.000000e+00  -4.153278e-09 -1.264235e-09 0.000000e+00  -2.786439e-09 -1.051171e-09 0.000000e+00  -1.664247e-09 -8.088887e-10 0.000000e+00  -8.392062e-10 -5.480581e-10 0.000000e+00  -3.808040e-10 -3.478408e-10 0.000000e+00  -2.887710e-10 -3.633563e-10 0.000000e+00  -5.860959e-11 1.826755e-11 0.000000e+00  8.226386e-07 -8.206713e-07 0.000000e+00  2.154757e-06 -7.819804e-07 0.000000e+00  2.786960e-06 -1.794513e-07 0.000000e+00  2.011943e-06 6.740396e-07 0.000000e+00  -4.654717e-07 1.608870e-06 0.000000e+00  -4.710695e-06 2.526791e-06 0.000000e+00  -1.064297e-05 3.370950e-06 0.000000e+00  -1.809577e-05 4.108926e-06 0.000000e+00  -2.685312e-05 4.723258e-06 0.000000e+00  -3.667319e-05 5.206302e-06 0.000000e+00  -4.730442e-05 5.557137e-06 0.000000e+00  -5.849688e-05 5.779575e-06 0.000000e+00  -7.001410e-05 5.881141e-06 0.000000e+00  -8.161990e-05 5.870609e-06 0.000000e+00  -9.311595e-05 5.759968e-06 0.000000e+00  -1.043310e-04 5.562280e-06 0.000000e+00  -1.150986e-04 5.290211e-06 0.000000e+00  -1.252741e-04 4.956850e-06 0.000000e+00  -1.347626e-04 4.576265e-06 0.000000e+00  -1.434989e-04 4.162161e-06 0.000000e+00  -1.514157e-04 3.726916e-06 0.000000e+00  -1.584667e-04 3.282360e-06 0.000000e+00  -1.646590e-04 2.840237e-06 0.000000e+00  -1.700235e-04 2.411241e-06 0.000000e+00  -1.745772e-04 2.004448e-06 0.000000e+00  -1.783525e-04 1.627946e-06 0.000000e+00  -1.814316e-04 1.289134e-06 0.000000e+00  -1.839116e-04 9.941145e-07 0.000000e+00  -1.858629e-04 7.474597e-07 0.000000e+00  -1.873633e-04 5.526578e-07 0.000000e+00  -1.885341e-04 4.122292e-07 0.000000e+00  -1.895007e-04 3.274400e-07 0.000000e+00  -1.903519e-04 2.983614e-07 0.000000e+00  -1.911752e-04 3.241118e-07 0.000000e+00  -1.920941e-04 4.027885e-07 0.000000e+00  -1.932272e-04 5.314635e-07 0.000000e+00  -1.946487e-04 7.064894e-07 0.000000e+00  -1.964253e-04 9.235347e-07 0.000000e+00  -1.986520e-04 1.177335e-06 0.000000e+00  -2.014120e-04 1.461930e-06 0.000000e+00  -2.047404e-04 1.771173e-06 0.000000e+00  -2.086611e-04 2.098565e-06 0.000000e+00  -2.132195e-04 2.436841e-06 0.000000e+00  -2.184449e-04 2.778407e-06 0.000000e+00  -2.243194e-04 3.116016e-06 0.000000e+00  -2.308127e-04 3.442423e-06 0.000000e+00  -2.379103e-04 3.749818e-06 0.000000e+00  -2.455808e-04 4.030432e-06 0.000000e+00  -2.537504e-04 4.277353e-06 0.000000e+00  -2.623339e-04 4.484005e-06 0.000000e+00  -2.712588e-04 4.643461e-06 0.000000e+00  -2.804371e-04 4.749188e-06 0.000000e+00  -2.897470e-04 4.795941e-06 0.000000e+00  -2.990591e-04 4.779114e-06 0.000000e+00  -3.082547e-04 4.693938e-06 0.000000e+00  -3.172040e-04 4.536316e-06 0.000000e+00  -3.257545e-04 4.303781e-06 0.000000e+00  -3.337526e-04 3.994711e-06 0.000000e+00  -3.410542e-04 3.607448e-06 0.000000e+00  -3.475101e-04 3.141189e-06 0.000000e+00  -3.529624e-04 2.596952e-06 0.000000e+00  -3.572588e-04 1.976694e-06 0.000000e+00  -3.602565e-04 1.282372e-06 0.000000e+00  -3.618148e-04 5.168534e-07 0.000000e+00  -3.617984e-04 -3.151437e-07 0.000000e+00  -3.600851e-04 -1.207999e-06 0.000000e+00  -3.565620e-04 -2.156161e-06 0.000000e+00  -3.511248e-04 -3.153247e-06 0.000000e+00  -3.436893e-04 -4.191156e-06 0.000000e+00  -3.341903e-04 -5.261061e-06 0.000000e+00  -3.225707e-04 -6.354372e-06 0.000000e+00  -3.087882e-04 -7.461878e-06 0.000000e+00  -2.928325e-04 -8.572949e-06 0.000000e+00  -2.747170e-04 -9.676525e-06 0.000000e+00  -2.544605e-04 -1.076205e-05 0.000000e+00  -2.320998e-04 -1.181866e-05 0.000000e+00  -2.077134e-04 -1.283455e-05 0.000000e+00  -1.814054e-04 -1.379787e-05 0.000000e+00  -1.532794e-04 -1.469760e-05 0.000000e+00  -1.234585e-04 -1.552290e-05 0.000000e+00  -9.211236e-05 -1.626247e-05 0.000000e+00  -5.943454e-05 -1.690553e-05 0.000000e+00  -2.561013e-05 -1.744249e-05 0.000000e+00  9.159613e-06 -1.786443e-05 0.000000e+00  4.462564e-05 -1.816263e-05 0.000000e+00  8.052135e-05 -1.832939e-05 0.000000e+00  1.165995e-04 -1.835859e-05 0.000000e+00  1.526036e-04 -1.824526e-05 0.000000e+00  1.882335e-04 -1.798524e-05 0.000000e+00  2.231816e-04 -1.757588e-05 0.000000e+00  2.571730e-04 -1.701635e-05 0.000000e+00  2.899336e-04 -1.630726e-05 0.000000e+00  3.211547e-04 -1.545061e-05 0.000000e+00  3.505325e-04 -1.445013e-05 0.000000e+00  3.778107e-04 -1.331136e-05 0.000000e+00  4.027455e-04 -1.204140e-05 0.000000e+00  4.250704e-04 -1.064900e-05 0.000000e+00  4.445377e-04 -9.144633e-06 0.000000e+00  4.609600e-04 -7.540291e-06 0.000000e+00  4.741746e-04 -5.849381e-06 0.000000e+00  4.840086e-04 -4.086983e-06 0.000000e+00  4.903213e-04 -2.269686e-06 0.000000e+00  4.930418e-04 -4.150590e-07 0.000000e+00  4.921336e-04 1.458225e-06 0.000000e+00  4.875632e-04 3.329907e-06 0.000000e+00  4.793393e-04 5.178558e-06 0.000000e+00  4.675461e-04 6.982388e-06 0.000000e+00  4.523091e-04 8.718868e-06 0.000000e+00  4.337687e-04 1.036397e-05 0.000000e+00  4.121153e-04 1.189282e-05 0.000000e+00  3.876152e-04 1.328077e-05 0.000000e+00  3.605802e-04 1.450272e-05 0.000000e+00  3.313486e-04 1.553207e-05 0.000000e+00  3.003136e-04 1.634163e-05 0.000000e+00  2.679402e-04 1.690490e-05 0.000000e+00  2.347411e-04 1.719512e-05 0.000000e+00  2.012657e-04 1.718415e-05 0.000000e+00  1.681200e-04 1.684382e-05 0.000000e+00  1.359711e-04 1.614779e-05 0.000000e+00  1.055285e-04 1.507132e-05 0.000000e+00  7.753609e-05 1.359215e-05 0.000000e+00  5.276955e-05 1.169623e-05 0.000000e+00  3.200506e-05 9.388128e-06 0.000000e+00  1.596067e-05 6.710521e-06 0.000000e+00  5.186460e-06 3.791332e-06 0.000000e+00  -1.767391e-07 9.654491e-07 0.000000e+00  -9.231588e-07 -9.217936e-07 0.000000e+00  -2.405170e-10 -2.091791e-10 0.000000e+00  -4.753861e-11 1.555074e-11 0.000000e+00  7.984342e-07 -2.162740e-06 0.000000e+00  1.630288e-06 -1.601948e-06 0.000000e+00  9.018592e-07 6.152343e-07 0.000000e+00  -2.299809e-06 3.674620e-06 0.000000e+00  -8.426685e-06 7.040331e-06 0.000000e+00  -1.760097e-05 1.037496e-05 0.000000e+00  -2.971389e-05 1.346992e-05 0.000000e+00  -4.450628e-05 1.619876e-05 0.000000e+00  -6.162401e-05 1.848925e-05 0.000000e+00  -8.065846e-05 2.030623e-05 0.000000e+00  -1.011758e-04 2.164059e-05 0.000000e+00  -1.227382e-04 2.250204e-05 0.000000e+00  -1.449276e-04 2.291510e-05 0.000000e+00  -1.673189e-04 2.290974e-05 0.000000e+00  -1.895555e-04 2.252879e-05 0.000000e+00  -2.113278e-04 2.181959e-05 0.000000e+00  -2.323294e-04 2.082840e-05 0.000000e+00  -2.522916e-04 1.960346e-05 0.000000e+00  -2.710387e-04 1.819711e-05 0.000000e+00  -2.884486e-04 1.666051e-05 0.000000e+00  -3.043908e-04 1.503995e-05 0.000000e+00  -3.187732e-04 1.337991e-05 0.000000e+00  -3.316046e-04 1.172470e-05 0.000000e+00  -3.429375e-04 1.011474e-05 0.000000e+00  -3.527955e-04 8.584378e-06 0.000000e+00  -3.612298e-04 7.164335e-06 0.000000e+00  -3.683880e-04 5.882822e-06 0.000000e+00  -3.744443e-04 4.763115e-06 0.000000e+00  -3.795214e-04 3.822693e-06 0.000000e+00  -3.837549e-04 3.075002e-06 0.000000e+00  -3.873650e-04 2.529834e-06 0.000000e+00  -3.905798e-04 2.192169e-06 0.000000e+00  -3.935560e-04 2.062442e-06 0.000000e+00  -3.964487e-04 2.137516e-06 0.000000e+00  -3.994830e-04 2.410355e-06 0.000000e+00  -4.028753e-04 2.869962e-06 0.000000e+00  -4.067561e-04 3.502607e-06 0.000000e+00  -4.112430e-04 4.291994e-06 0.000000e+00  -4.165091e-04 5.218236e-06 0.000000e+00  -4.227057e-04 6.258740e-06 0.000000e+00  -4.298919e-04 7.390232e-06 0.000000e+00  -4.381066e-04 8.588132e-06 0.000000e+00  -4.474313e-04 9.824886e-06 0.000000e+00  -4.579180e-04 1.107165e-05 0.000000e+00  -4.695284e-04 1.230098e-05 0.000000e+00  -4.822010e-04 1.348545e-05 0.000000e+00  -4.959074e-04 1.459542e-05 0.000000e+00  -5.105872e-04 1.560143e-05 0.000000e+00  -5.260990e-04 1.647732e-05 0.000000e+00  -5.422813e-04 1.719829e-05 0.000000e+00  -5.589980e-04 1.773810e-05 0.000000e+00  -5.760848e-04 1.807206e-05 0.000000e+00  -5.933124e-04 1.818044e-05 0.000000e+00  -6.104389e-04 1.804600e-05 0.000000e+00  -6.272436e-04 1.765079e-05 0.000000e+00  -6.434854e-04 1.697946e-05 0.000000e+00  -6.588807e-04 1.602294e-05 0.000000e+00  -6.731438e-04 1.477542e-05 0.000000e+00  -6.860086e-04 1.323084e-05 0.000000e+00  -6.971999e-04 1.138646e-05 0.000000e+00  -7.064259e-04 9.246529e-06 0.000000e+00  -7.134058e-04 6.818889e-06 0.000000e+00  -7.178778e-04 4.111280e-06 0.000000e+00  -7.195839e-04 1.134936e-06 0.000000e+00  -7.182768e-04 -2.091779e-06 0.000000e+00  -7.137341e-04 -5.547097e-06 0.000000e+00  -7.057508e-04 -9.209616e-06 0.000000e+00  -6.941387e-04 -1.305475e-05 0.000000e+00  -6.787472e-04 -1.705131e-05 0.000000e+00  -6.594619e-04 -2.116539e-05 0.000000e+00  -6.361832e-04 -2.536411e-05 0.000000e+00  -6.088386e-04 -2.961219e-05 0.000000e+00  -5.774167e-04 -3.386894e-05 0.000000e+00  -5.419508e-04 -3.809207e-05 0.000000e+00  -5.024823e-04 -4.224133e-05 0.000000e+00  -4.590864e-04 -4.627539e-05 0.000000e+00  -4.119177e-04 -5.014912e-05 0.000000e+00  -3.611777e-04 -5.381745e-05 0.000000e+00  -3.070659e-04 -5.723860e-05 0.000000e+00  -2.498167e-04 -6.037134e-05 0.000000e+00  -1.897538e-04 -6.317284e-05 0.000000e+00  -1.272445e-04 -6.560220e-05 0.000000e+00  -6.263799e-05 -6.762325e-05 0.000000e+00  3.687284e-06 -6.920227e-05 0.000000e+00  7.126190e-05 -7.030635e-05 0.000000e+00  1.395842e-04 -7.090653e-05 0.000000e+00  2.081918e-04 -7.097998e-05 0.000000e+00  2.766059e-04 -7.050806e-05 0.000000e+00  3.442644e-04 -6.947541e-05 0.000000e+00  4.105915e-04 -6.787233e-05 0.000000e+00  4.750763e-04 -6.569608e-05 0.000000e+00  5.372097e-04 -6.294947e-05 0.000000e+00  5.964159e-04 -5.964047e-05 0.000000e+00  6.521291e-04 -5.578369e-05 0.000000e+00  7.038749e-04 -5.140066e-05 0.000000e+00  7.512034e-04 -4.651886e-05 0.000000e+00  7.936193e-04 -4.117193e-05 0.000000e+00  8.306630e-04 -3.540019e-05 0.000000e+00  8.619908e-04 -2.924968e-05 0.000000e+00  8.873053e-04 -2.277183e-05 0.000000e+00  9.062874e-04 -1.602443e-05 0.000000e+00  9.186782e-04 -9.071063e-06 0.000000e+00  9.243525e-04 -1.979017e-06 0.000000e+00  9.232493e-04 5.180272e-06 0.000000e+00  9.153103e-04 1.232930e-05 0.000000e+00  9.005563e-04 1.938612e-05 0.000000e+00  8.791516e-04 2.626750e-05 0.000000e+00  8.513371e-04 3.288751e-05 0.000000e+00  8.173790e-04 3.915456e-05 0.000000e+00  7.776362e-04 4.497406e-05 0.000000e+00  7.326103e-04 5.025255e-05 0.000000e+00  6.828871e-04 5.489521e-05 0.000000e+00  6.290966e-04 5.880199e-05 0.000000e+00  5.719691e-04 6.187131e-05 0.000000e+00  5.123666e-04 6.400522e-05 0.000000e+00  4.512340e-04 6.510618e-05 0.000000e+00  3.895747e-04 6.507324e-05 0.000000e+00  3.284860e-04 6.380810e-05 0.000000e+00  2.691659e-04 6.122318e-05 0.000000e+00  2.128696e-04 5.724222e-05 0.000000e+00  1.608854e-04 5.180559e-05 0.000000e+00  1.145211e-04 4.489436e-05 0.000000e+00  7.503932e-05 3.657057e-05 0.000000e+00  4.354254e-05 2.704334e-05 0.000000e+00  2.079824e-05 1.681225e-05 0.000000e+00  6.941267e-06 6.974080e-06 0.000000e+00  9.489825e-07 -1.844720e-07 0.000000e+00  -2.340609e-10 -2.799254e-10 0.000000e+00  9.134865e-12 -2.905983e-11 0.000000e+00  2.122185e-07 -2.829277e-06 0.000000e+00  -5.608769e-07 -8.785592e-07 0.000000e+00  -3.893303e-06 3.937219e-06 0.000000e+00  -1.069654e-05 1.027101e-05 0.000000e+00  -2.143602e-05 1.718879e-05 0.000000e+00  -3.622714e-05 2.406086e-05 0.000000e+00  -5.492550e-05 3.047262e-05 0.000000e+00  -7.720221e-05 3.615961e-05 0.000000e+00  -1.026042e-04 4.096315e-05 0.000000e+00  -1.306019e-04 4.480022e-05 0.000000e+00  -1.606265e-04 4.764282e-05 0.000000e+00  -1.920983e-04 4.950362e-05 0.000000e+00  -2.244597e-04 5.042782e-05 0.000000e+00  -2.571348e-04 5.047323e-05 0.000000e+00  -2.896424e-04 4.972612e-05 0.000000e+00  -3.215624e-04 4.828333e-05 0.000000e+00  -3.524721e-04 4.624004e-05 0.000000e+00  -3.819976e-04 4.369635e-05 0.000000e+00  -4.098963e-04 4.076181e-05 0.000000e+00  -4.359977e-04 3.754395e-05 0.000000e+00  -4.601141e-04 3.414023e-05 0.000000e+00  -4.821095e-04 3.064457e-05 0.000000e+00  -5.019918e-04 2.715103e-05 0.000000e+00  -5.198291e-04 2.374555e-05 0.000000e+00  -5.356440e-04 2.050119e-05 0.000000e+00  -5.494972e-04 1.748351e-05 0.000000e+00  -5.615881e-04 1.475288e-05 0.000000e+00  -5.721531e-04 1.235922e-05 0.000000e+00  -5.813519e-04 1.034007e-05 0.000000e+00  -5.893625e-04 8.724426e-06 0.000000e+00  -5.964856e-04 7.533555e-06 0.000000e+00  -6.030332e-04 6.778410e-06 0.000000e+00  -6.092130e-04 6.460224e-06 0.000000e+00  -6.152308e-04 6.572614e-06 0.000000e+00  -6.213954e-04 7.100826e-06 0.000000e+00  -6.280029e-04 8.021580e-06 0.000000e+00  -6.352259e-04 9.305767e-06 0.000000e+00  -6.432190e-04 1.091879e-05 0.000000e+00  -6.522191e-04 1.281828e-05 0.000000e+00  -6.624326e-04 1.495603e-05 0.000000e+00  -6.739336e-04 1.728244e-05 0.000000e+00  -6.867679e-04 1.974512e-05 0.000000e+00  -7.010455e-04 2.228522e-05 0.000000e+00  -7.168353e-04 2.484111e-05 0.000000e+00  -7.340761e-04 2.735423e-05 0.000000e+00  -7.526755e-04 2.976616e-05 0.000000e+00  -7.725906e-04 3.201362e-05 0.000000e+00  -7.937344e-04 3.403367e-05 0.000000e+00  -8.159037e-04 3.577070e-05 0.000000e+00  -8.388676e-04 3.717198e-05 0.000000e+00  -8.624347e-04 3.818166e-05 0.000000e+00  -8.863741e-04 3.874713e-05 0.000000e+00  -9.103619e-04 3.882675e-05 0.000000e+00  -9.340576e-04 3.838418e-05 0.000000e+00  -9.571533e-04 3.738145e-05 0.000000e+00  -9.793128e-04 3.578617e-05 0.000000e+00  -1.000139e-03 3.357967e-05 0.000000e+00  -1.019233e-03 3.075027e-05 0.000000e+00  -1.036227e-03 2.728563e-05 0.000000e+00  -1.050738e-03 2.318045e-05 0.000000e+00  -1.062361e-03 1.844473e-05 0.000000e+00  -1.070709e-03 1.309614e-05 0.000000e+00  -1.075419e-03 7.151940e-06 0.000000e+00  -1.076138e-03 6.368290e-07 0.000000e+00  -1.072525e-03 -6.408962e-06 0.000000e+00  -1.064276e-03 -1.393794e-05 0.000000e+00  -1.051114e-03 -2.190364e-05 0.000000e+00  -1.032781e-03 -3.025284e-05 0.000000e+00  -1.009076e-03 -3.891793e-05 0.000000e+00  -9.798500e-04 -4.782558e-05 0.000000e+00  -9.449713e-04 -5.690491e-05 0.000000e+00  -9.043479e-04 -6.608000e-05 0.000000e+00  -8.579745e-04 -7.526312e-05 0.000000e+00  -8.059086e-04 -8.436325e-05 0.000000e+00  -7.482174e-04 -9.329405e-05 0.000000e+00  -6.850152e-04 -1.019669e-04 0.000000e+00  -6.165288e-04 -1.102849e-04 0.000000e+00  -5.430518e-04 -1.181515e-04 0.000000e+00  -4.648709e-04 -1.254774e-04 0.000000e+00  -3.823216e-04 -1.321745e-04 0.000000e+00  -2.958667e-04 -1.381514e-04 0.000000e+00  -2.060298e-04 -1.433206e-04 0.000000e+00  -1.133049e-04 -1.476054e-04 0.000000e+00  -1.822652e-05 -1.509341e-04 0.000000e+00  7.854116e-05 -1.532368e-04 0.000000e+00  1.762891e-04 -1.544520e-04 0.000000e+00  2.743682e-04 -1.545317e-04 0.000000e+00  3.721069e-04 -1.534368e-04 0.000000e+00  4.687144e-04 -1.511352e-04 0.000000e+00  5.633809e-04 -1.476069e-04 0.000000e+00  6.553928e-04 -1.428469e-04 0.000000e+00  7.440398e-04 -1.368622e-04 0.000000e+00  8.285147e-04 -1.296707e-04 0.000000e+00  9.080248e-04 -1.213046e-04 0.000000e+00  9.819106e-04 -1.118107e-04 0.000000e+00  1.049547e-03 -1.012489e-04 0.000000e+00  1.110243e-03 -8.969208e-05 0.0000