<?xml version="1.0"?>
<VTKFile type="UnstructuredGrid"  version="0.1"  >
<UnstructuredGrid>
<Piece  NumberOfPoints="16641" NumberOfCells="32768">
<Points>
<DataArray  type="Float32"  NumberOfComponents="3"  format="ascii">0 0 0  0.0078125 0 0  0.015625 0 0  0.0234375 0 0  0.03125 0 0  0.0390625 0 0  0.046875 0 0  0.0546875 0 0  0.0625 0 0  0.0703125 0 0  0.078125 0 0  0.0859375 0 0  0.09375 0 0  0.101562 0 0  0.109375 0 0  0.117188 0 0  0.125 0 0  0.132812 0 0  0.140625 0 0  0.148438 0 0  0.15625 0 0  0.164062 0 0  0.171875 0 0  0.179688 0 0  0.1875 0 0  0.195312 0 0  0.203125 0 0  0.210938 0 0  0.21875 0 0  0.226562 0 0  0.234375 0 0  0.242188 0 0  0.25 0 0  0.257812 0 0  0.265625 0 0  0.273438 0 0  0.28125 0 0  0.289062 0 0  0.296875 0 0  0.304688 0 0  0.3125 0 0  0.320312 0 0  0.328125 0 0  0.335938 0 0  0.34375 0 0  0.351562 0 0  0.359375 0 0  0.367188 0 0  0.375 0 0  0.382812 0 0  0.390625 0 0  0.398438 0 0  0.40625 0 0  0.414062 0 0  0.421875 0 0  0.429688 0 0  0.4375 0 0  0.445312 0 0  0.453125 0 0  0.460938 0 0  0.46875 0 0  0.476562 0 0  0.484375 0 0  0.492188 0 0  0.5 0 0  0.507812 0 0  0.515625 0 0  0.523438 0 0  0.53125 0 0  0.539062 0 0  0.546875 0 0  0.554688 0 0  0.5625 0 0  0.570312 0 0  0.578125 0 0  0.585938 0 0  0.59375 0 0  0.601562 0 0  0.609375 0 0  0.617188 0 0  0.625 0 0  0.632812 0 0  0.640625 0 0  0.648438 0 0  0.65625 0 0  0.664062 0 0  0.671875 0 0  0.679688 0 0  0.6875 0 0  0.695312 0 0  0.703125 0 0  0.710938 0 0  0.71875 0 0  0.726562 0 0  0.734375 0 0  0.742188 0 0  0.75 0 0  0.757812 0 0  0.765625 0 0  0.773438 0 0  0.78125 0 0  0.789062 0 0  0.796875 0 0  0.804688 0 0  0.8125 0 0  0.820312 0 0  0.828125 0 0  0.835938 0 0  0.84375 0 0  0.851562 0 0  0.859375 0 0  0.867188 0 0  0.875 0 0  0.882812 0 0  0.890625 0 0  0.898438 0 0  0.90625 0 0  0.914062 0 0  0.921875 0 0  0.929688 0 0  0.9375 0 0  0.945312 0 0  0.953125 0 0  0.960938 0 0  0.96875 0 0  0.976562 0 0  0.984375 0 0  0.992188 0 0  1 0 0  0 0.0078125 0  0.0078125 0.0078125 0  0.015625 0.0078125 0  0.0234375 0.0078125 0  0.03125 0.0078125 0  0.0390625 0.0078125 0  0.046875 0.0078125 0  0.0546875 0.0078125 0  0.0625 0.0078125 0  0.0703125 0.0078125 0  0.078125 0.0078125 0  0.0859375 0.0078125 0  0.09375 0.0078125 0  0.101562 0.0078125 0  0.109375 0.0078125 0  0.117188 0.0078125 0  0.125 0.0078125 0  0.132812 0.0078125 0  0.140625 0.0078125 0  0.148438 0.0078125 0  0.15625 0.0078125 0  0.164062 0.0078125 0  0.171875 0.0078125 0  0.179688 0.0078125 0  0.1875 0.0078125 0  0.195312 0.0078125 0  0.203125 0.0078125 0  0.210938 0.0078125 0  0.21875 0.0078125 0  0.226562 0.0078125 0  0.234375 0.0078125 0  0.242188 0.0078125 0  0.25 0.0078125 0  0.257812 0.0078125 0  0.265625 0.0078125 0  0.273438 0.0078125 0  0.28125 0.0078125 0  0.289062 0.0078125 0  0.296875 0.0078125 0  0.304688 0.0078125 0  0.3125 0.0078125 0  0.320312 0.0078125 0  0.328125 0.0078125 0  0.335938 0.0078125 0  0.34375 0.0078125 0  0.351562 0.0078125 0  0.359375 0.0078125 0  0.367188 0.0078125 0  0.375 0.0078125 0  0.382812 0.0078125 0  0.390625 0.0078125 0  0.398438 0.0078125 0  0.40625 0.0078125 0  0.414062 0.0078125 0  0.421875 0.0078125 0  0.429688 0.0078125 0  0.4375 0.0078125 0  0.445312 0.0078125 0  0.453125 0.0078125 0  0.460938 0.0078125 0  0.46875 0.0078125 0  0.476562 0.0078125 0  0.484375 0.0078125 0  0.492188 0.0078125 0  0.5 0.0078125 0  0.507812 0.0078125 0  0.515625 0.0078125 0  0.523438 0.0078125 0  0.53125 0.0078125 0  0.539062 0.0078125 0  0.546875 0.0078125 0  0.554688 0.0078125 0  0.5625 0.0078125 0  0.570312 0.0078125 0  0.578125 0.0078125 0  0.585938 0.0078125 0  0.59375 0.0078125 0  0.601562 0.0078125 0  0.609375 0.0078125 0  0.617188 0.0078125 0  0.625 0.0078125 0  0.632812 0.0078125 0  0.640625 0.0078125 0  0.648438 0.0078125 0  0.65625 0.0078125 0  0.664062 0.0078125 0  0.671875 0.0078125 0  0.679688 0.0078125 0  0.6875 0.0078125 0  0.695312 0.0078125 0  0.703125 0.0078125 0  0.710938 0.0078125 0  0.71875 0.0078125 0  0.726562 0.0078125 0  0.734375 0.0078125 0  0.742188 0.0078125 0  0.75 0.0078125 0  0.757812 0.0078125 0  0.765625 0.0078125 0  0.773438 0.0078125 0  0.78125 0.0078125 0  0.789062 0.0078125 0  0.796875 0.0078125 0  0.804688 0.0078125 0  0.8125 0.0078125 0  0.820312 0.0078125 0  0.828125 0.0078125 0  0.835938 0.0078125 0  0.84375 0.0078125 0  0.851562 0.0078125 0  0.859375 0.0078125 0  0.867188 0.0078125 0  0.875 0.0078125 0  0.882812 0.0078125 0  0.890625 0.0078125 0  0.898438 0.0078125 0  0.90625 0.0078125 0  0.914062 0.0078125 0  0.921875 0.0078125 0  0.929688 0.0078125 0  0.9375 0.0078125 0  0.945312 0.0078125 0  0.953125 0.0078125 0  0.960938 0.0078125 0  0.96875 0.0078125 0  0.976562 0.0078125 0  0.984375 0.0078125 0  0.992188 0.0078125 0  1 0.0078125 0  0 0.015625 0  0.0078125 0.015625 0  0.015625 0.015625 0  0.0234375 0.015625 0  0.03125 0.015625 0  0.0390625 0.015625 0  0.046875 0.015625 0  0.0546875 0.015625 0  0.0625 0.015625 0  0.0703125 0.015625 0  0.078125 0.015625 0  0.0859375 0.015625 0  0.09375 0.015625 0  0.101562 0.015625 0  0.109375 0.015625 0  0.117188 0.015625 0  0.125 0.015625 0  0.132812 0.015625 0  0.140625 0.015625 0  0.148438 0.015625 0  0.15625 0.015625 0  0.164062 0.015625 0  0.171875 0.015625 0  0.179688 0.015625 0  0.1875 0.015625 0  0.195312 0.015625 0  0.203125 0.015625 0  0.210938 0.015625 0  0.21875 0.015625 0  0.226562 0.015625 0  0.234375 0.015625 0  0.242188 0.015625 0  0.25 0.015625 0  0.257812 0.015625 0  0.265625 0.015625 0  0.273438 0.015625 0  0.28125 0.015625 0  0.289062 0.015625 0  0.296875 0.015625 0  0.304688 0.015625 0  0.3125 0.015625 0  0.320312 0.015625 0  0.328125 0.015625 0  0.335938 0.015625 0  0.34375 0.015625 0  0.351562 0.015625 0  0.359375 0.015625 0  0.367188 0.015625 0  0.375 0.015625 0  0.382812 0.015625 0  0.390625 0.015625 0  0.398438 0.015625 0  0.40625 0.015625 0  0.414062 0.015625 0  0.421875 0.015625 0  0.429688 0.015625 0  0.4375 0.015625 0  0.445312 0.015625 0  0.453125 0.015625 0  0.460938 0.015625 0  0.46875 0.015625 0  0.476562 0.015625 0  0.484375 0.015625 0  0.492188 0.015625 0  0.5 0.015625 0  0.507812 0.015625 0  0.515625 0.015625 0  0.523438 0.015625 0  0.53125 0.015625 0  0.539062 0.015625 0  0.546875 0.015625 0  0.554688 0.015625 0  0.5625 0.015625 0  0.570312 0.015625 0  0.578125 0.015625 0  0.585938 0.015625 0  0.59375 0.015625 0  0.601562 0.015625 0  0.609375 0.015625 0  0.617188 0.015625 0  0.625 0.015625 0  0.632812 0.015625 0  0.640625 0.015625 0  0.648438 0.015625 0  0.65625 0.015625 0  0.664062 0.015625 0  0.671875 0.015625 0  0.679688 0.015625 0  0.6875 0.015625 0  0.695312 0.015625 0  0.703125 0.015625 0  0.710938 0.015625 0  0.71875 0.015625 0  0.726562 0.015625 0  0.734375 0.015625 0  0.742188 0.015625 0  0.75 0.015625 0  0.757812 0.015625 0  0.765625 0.015625 0  0.773438 0.015625 0  0.78125 0.015625 0  0.789062 0.015625 0  0.796875 0.015625 0  0.804688 0.015625 0  0.8125 0.015625 0  0.820312 0.015625 0  0.828125 0.015625 0  0.835938 0.015625 0  0.84375 0.015625 0  0.851562 0.015625 0  0.859375 0.015625 0  0.867188 0.015625 0  0.875 0.015625 0  0.882812 0.015625 0  0.890625 0.015625 0  0.898438 0.015625 0  0.90625 0.015625 0  0.914062 0.015625 0  0.921875 0.015625 0  0.929688 0.015625 0  0.9375 0.015625 0  0.945312 0.015625 0  0.953125 0.015625 0  0.960938 0.015625 0  0.96875 0.015625 0  0.976562 0.015625 0  0.984375 0.015625 0  0.992188 0.015625 0  1 0.015625 0  0 0.0234375 0  0.0078125 0.0234375 0  0.015625 0.0234375 0  0.0234375 0.0234375 0  0.03125 0.0234375 0  0.0390625 0.0234375 0  0.046875 0.0234375 0  0.0546875 0.0234375 0  0.0625 0.0234375 0  0.0703125 0.0234375 0  0.078125 0.0234375 0  0.0859375 0.0234375 0  0.09375 0.0234375 0  0.101562 0.0234375 0  0.109375 0.0234375 0  0.117188 0.0234375 0  0.125 0.0234375 0  0.132812 0.0234375 0  0.140625 0.0234375 0  0.148438 0.0234375 0  0.15625 0.0234375 0  0.164062 0.0234375 0  0.171875 0.0234375 0  0.179688 0.0234375 0  0.1875 0.0234375 0  0.195312 0.0234375 0  0.203125 0.0234375 0  0.210938 0.0234375 0  0.21875 0.0234375 0  0.226562 0.0234375 0  0.234375 0.0234375 0  0.242188 0.0234375 0  0.25 0.0234375 0  0.257812 0.0234375 0  0.265625 0.0234375 0  0.273438 0.0234375 0  0.28125 0.0234375 0  0.289062 0.0234375 0  0.296875 0.0234375 0  0.304688 0.0234375 0  0.3125 0.0234375 0  0.320312 0.0234375 0  0.328125 0.0234375 0  0.335938 0.0234375 0  0.34375 0.0234375 0  0.351562 0.0234375 0  0.359375 0.0234375 0  0.367188 0.0234375 0  0.375 0.0234375 0  0.382812 0.0234375 0  0.390625 0.0234375 0  0.398438 0.0234375 0  0.40625 0.0234375 0  0.414062 0.0234375 0  0.421875 0.0234375 0  0.429688 0.0234375 0  0.4375 0.0234375 0  0.445312 0.0234375 0  0.453125 0.0234375 0  0.460938 0.0234375 0  0.46875 0.0234375 0  0.476562 0.0234375 0  0.484375 0.0234375 0  0.492188 0.0234375 0  0.5 0.0234375 0  0.507812 0.0234375 0  0.515625 0.0234375 0  0.523438 0.0234375 0  0.53125 0.0234375 0  0.539062 0.0234375 0  0.546875 0.0234375 0  0.554688 0.0234375 0  0.5625 0.0234375 0  0.570312 0.0234375 0  0.578125 0.0234375 0  0.585938 0.0234375 0  0.59375 0.0234375 0  0.601562 0.0234375 0  0.609375 0.0234375 0  0.617188 0.0234375 0  0.625 0.0234375 0  0.632812 0.0234375 0  0.640625 0.0234375 0  0.648438 0.0234375 0  0.65625 0.0234375 0  0.664062 0.0234375 0  0.671875 0.0234375 0  0.679688 0.0234375 0  0.6875 0.0234375 0  0.695312 0.0234375 0  0.703125 0.0234375 0  0.710938 0.0234375 0  0.71875 0.0234375 0  0.726562 0.0234375 0  0.734375 0.0234375 0  0.742188 0.0234375 0  0.75 0.0234375 0  0.757812 0.0234375 0  0.765625 0.0234375 0  0.773438 0.0234375 0  0.78125 0.0234375 0  0.789062 0.0234375 0  0.796875 0.0234375 0  0.804688 0.0234375 0  0.8125 0.0234375 0  0.820312 0.0234375 0  0.828125 0.0234375 0  0.835938 0.0234375 0  0.84375 0.0234375 0  0.851562 0.0234375 0  0.859375 0.0234375 0  0.867188 0.0234375 0  0.875 0.0234375 0  0.882812 0.0234375 0  0.890625 0.0234375 0  0.898438 0.0234375 0  0.90625 0.0234375 0  0.914062 0.0234375 0  0.921875 0.0234375 0  0.929688 0.0234375 0  0.9375 0.0234375 0  0.945312 0.0234
[...]
<PointData  Vectors="u"> 
<DataArray  type="Float32"  Name="u"  NumberOfComponents="3" format="ascii">1.152603e-10 -5.367633e-11 0.000000e+00  5.273035e-11 -1.526936e-11 0.000000e+00  9.489921e-12 2.363134e-11 0.000000e+00  -4.367577e-11 -6.932539e-13 0.000000e+00  -4.786904e-11 -5.745909e-11 0.000000e+00  -6.665960e-12 -1.291613e-10 0.000000e+00  1.195365e-10 -2.122298e-10 0.000000e+00  3.414907e-10 -2.981548e-10 0.000000e+00  6.597282e-10 -3.803190e-10 0.000000e+00  1.068424e-09 -4.544184e-10 0.000000e+00  1.557733e-09 -5.178671e-10 0.000000e+00  2.115373e-09 -5.692594e-10 0.000000e+00  2.728278e-09 -6.080763e-10 0.000000e+00  3.381324e-09 -6.341891e-10 0.000000e+00  4.062443e-09 -6.482938e-10 0.000000e+00  4.758189e-09 -6.511084e-10 0.000000e+00  5.454844e-09 -6.434897e-10 0.000000e+00  6.141779e-09 -6.266737e-10 0.000000e+00  6.810999e-09 -6.020755e-10 0.000000e+00  7.453416e-09 -5.709567e-10 0.000000e+00  8.059881e-09 -5.345396e-10 0.000000e+00  8.625731e-09 -4.942334e-10 0.000000e+00  9.149365e-09 -4.514568e-10 0.000000e+00  9.627106e-09 -4.074026e-10 0.000000e+00  1.005495e-08 -3.631592e-10 0.000000e+00  1.043402e-08 -3.198645e-10 0.000000e+00  1.076833e-08 -2.785729e-10 0.000000e+00  1.105878e-08 -2.401212e-10 0.000000e+00  1.130544e-08 -2.052203e-10 0.000000e+00  1.151365e-08 -1.745393e-10 0.000000e+00  1.169113e-08 -1.486285e-10 0.000000e+00  1.184159e-08 -1.278589e-10 0.000000e+00  1.196742e-08 -1.124736e-10 0.000000e+00  1.207597e-08 -1.026340e-10 0.000000e+00  1.217651e-08 -9.839353e-11 0.000000e+00  1.227356e-08 -9.966447e-11 0.000000e+00  1.236976e-08 -1.062374e-10 0.000000e+00  1.247241e-08 -1.178323e-10 0.000000e+00  1.259032e-08 -1.341047e-10 0.000000e+00  1.272699e-08 -1.545923e-10 0.000000e+00  1.288349e-08 -1.787195e-10 0.000000e+00  1.306534e-08 -2.058937e-10 0.000000e+00  1.327948e-08 -2.355187e-10 0.000000e+00  1.352696e-08 -2.668857e-10 0.000000e+00  1.380588e-08 -2.991834e-10 0.000000e+00  1.411891e-08 -3.316633e-10 0.000000e+00  1.447031e-08 -3.636381e-10 0.000000e+00  1.485787e-08 -3.943002e-10 0.000000e+00  1.527593e-08 -4.227568e-10 0.000000e+00  1.572390e-08 -4.482646e-10 0.000000e+00  1.620325e-08 -4.701967e-10 0.000000e+00  1.670833e-08 -4.877986e-10 0.000000e+00  1.722959e-08 -5.002585e-10 0.000000e+00  1.776348e-08 -5.069865e-10 0.000000e+00  1.830915e-08 -5.075432e-10 0.000000e+00  1.885795e-08 -5.013686e-10 0.000000e+00  1.939705e-08 -4.878858e-10 0.000000e+00  1.992081e-08 -4.667785e-10 0.000000e+00  2.042699e-08 -4.378846e-10 0.000000e+00  2.090496e-08 -4.009529e-10 0.000000e+00  2.133989e-08 -3.557690e-10 0.000000e+00  2.172532e-08 -3.023667e-10 0.000000e+00  2.205885e-08 -2.409028e-10 0.000000e+00  2.232935e-08 -1.715083e-10 0.000000e+00  2.252174e-08 -9.441392e-11 0.000000e+00  2.263024e-08 -1.002645e-11 0.000000e+00  2.265366e-08 8.118879e-11 0.000000e+00  2.258205e-08 1.786974e-10 0.000000e+00  2.240208e-08 2.817994e-10 0.000000e+00  2.211026e-08 3.897486e-10 0.000000e+00  2.170769e-08 5.018325e-10 0.000000e+00  2.118737e-08 6.171496e-10 0.000000e+00  2.053978e-08 7.345726e-10 0.000000e+00  1.976499e-08 8.531048e-10 0.000000e+00  1.886723e-08 9.718921e-10 0.000000e+00  1.784391e-08 1.089760e-09 0.000000e+00  1.669110e-08 1.205266e-09 0.000000e+00  1.541326e-08 1.317298e-09 0.000000e+00  1.401807e-08 1.425003e-09 0.000000e+00  1.250837e-08 1.527082e-09 0.000000e+00  1.088697e-08 1.621949e-09 0.000000e+00  9.162898e-09 1.708559e-09 0.000000e+00  7.347009e-09 1.786216e-09 0.000000e+00  5.447820e-09 1.853691e-09 0.000000e+00  3.475230e-09 1.909486e-09 0.000000e+00  1.442238e-09 1.952816e-09 0.000000e+00  -6.381310e-10 1.983313e-09 0.000000e+00  -2.752266e-09 2.000035e-09 0.000000e+00  -4.883951e-09 2.001828e-09 0.000000e+00  -7.017647e-09 1.988360e-09 0.000000e+00  -9.139781e-09 1.959737e-09 0.000000e+00  -1.123322e-08 1.915515e-09 0.000000e+00  -1.327732e-08 1.855128e-09 0.000000e+00  -1.525620e-08 1.778845e-09 0.000000e+00  -1.715788e-08 1.687338e-09 0.000000e+00  -1.896411e-08 1.580817e-09 0.000000e+00  -2.065276e-08 1.459481e-09 0.000000e+00  -2.221026e-08 1.324268e-09 0.000000e+00  -2.362858e-08 1.176417e-09 0.000000e+00  -2.489139e-08 1.016863e-09 0.000000e+00  -2.597854e-08 8.466386e-10 0.000000e+00  -2.688161e-08 6.673122e-10 0.000000e+00  -2.759871e-08 4.806094e-10 0.000000e+00  -2.811853e-08 2.881501e-10 0.000000e+00  -2.842661e-08 9.175979e-11 0.000000e+00  -2.852211e-08 -1.064851e-10 0.000000e+00  -2.841101e-08 -3.045198e-10 0.000000e+00  -2.808985e-08 -5.001530e-10 0.000000e+00  -2.755321e-08 -6.909039e-10 0.000000e+00  -2.680962e-08 -8.743611e-10 0.000000e+00  -2.587401e-08 -1.048281e-09 0.000000e+00  -2.475305e-08 -1.210067e-09 0.000000e+00  -2.345294e-08 -1.356792e-09 0.000000e+00  -2.199268e-08 -1.485901e-09 0.000000e+00  -2.039654e-08 -1.595128e-09 0.000000e+00  -1.868287e-08 -1.681688e-09 0.000000e+00  -1.687107e-08 -1.742513e-09 0.000000e+00  -1.499083e-08 -1.775176e-09 0.000000e+00  -1.307574e-08 -1.777641e-09 0.000000e+00  -1.115626e-08 -1.747411e-09 0.000000e+00  -9.265109e-09 -1.682018e-09 0.000000e+00  -7.441796e-09 -1.580072e-09 0.000000e+00  -5.728167e-09 -1.441271e-09 0.000000e+00  -4.165320e-09 -1.265472e-09 0.000000e+00  -2.796960e-09 -1.052946e-09 0.000000e+00  -1.672566e-09 -8.109436e-10 0.000000e+00  -8.450242e-10 -5.501792e-10 0.000000e+00  -3.848416e-10 -3.500945e-10 0.000000e+00  -2.927230e-10 -3.660899e-10 0.000000e+00  -5.894914e-11 1.832300e-11 0.000000e+00  8.294090e-07 -8.274403e-07 0.000000e+00  2.181132e-06 -7.956157e-07 0.000000e+00  2.841796e-06 -1.963871e-07 0.000000e+00  2.098177e-06 6.567602e-07 0.000000e+00  -3.494699e-07 1.593409e-06 0.000000e+00  -4.569983e-06 2.514662e-06 0.000000e+00  -1.048502e-05 3.363180e-06 0.000000e+00  -1.792970e-05 4.106196e-06 0.000000e+00  -2.668913e-05 4.725992e-06 0.000000e+00  -3.652217e-05 5.214742e-06 0.000000e+00  -4.717761e-05 5.571389e-06 0.000000e+00  -5.840564e-05 5.799646e-06 0.000000e+00  -6.996977e-05 5.906969e-06 0.000000e+00  -8.163368e-05 5.902083e-06 0.000000e+00  -9.319879e-05 5.796947e-06 0.000000e+00  -1.044936e-04 5.604602e-06 0.000000e+00  -1.153513e-04 5.337710e-06 0.000000e+00  -1.256269e-04 5.009359e-06 0.000000e+00  -1.352253e-04 4.633626e-06 0.000000e+00  -1.440810e-04 4.224228e-06 0.000000e+00  -1.521263e-04 3.793556e-06 0.000000e+00  -1.593147e-04 3.353461e-06 0.000000e+00  -1.656531e-04 2.915702e-06 0.000000e+00  -1.711723e-04 2.490990e-06 0.000000e+00  -1.758891e-04 2.088415e-06 0.000000e+00  -1.798357e-04 1.716079e-06 0.000000e+00  -1.830944e-04 1.381387e-06 0.000000e+00  -1.857619e-04 1.090444e-06 0.000000e+00  -1.879088e-04 8.478215e-07 0.000000e+00  -1.896126e-04 6.570007e-07 0.000000e+00  -1.909946e-04 5.204887e-07 0.000000e+00  -1.921800e-04 4.395323e-07 0.000000e+00  -1.932573e-04 4.141787e-07 0.000000e+00  -1.943139e-04 4.435165e-07 0.000000e+00  -1.954730e-04 5.256075e-07 0.000000e+00  -1.968527e-04 6.574831e-07 0.000000e+00  -1.985266e-04 8.354526e-07 0.000000e+00  -2.005611e-04 1.055138e-06 0.000000e+00  -2.030505e-04 1.311226e-06 0.000000e+00  -2.060772e-04 1.597706e-06 0.000000e+00  -2.096754e-04 1.908384e-06 0.000000e+00  -2.138682e-04 2.236714e-06 0.000000e+00  -2.186999e-04 2.575389e-06 0.000000e+00  -2.241987e-04 2.916775e-06 0.000000e+00  -2.303456e-04 3.253596e-06 0.000000e+00  -2.371090e-04 3.578581e-06 0.000000e+00  -2.444733e-04 3.883903e-06 0.000000e+00  -2.524056e-04 4.161787e-06 0.000000e+00  -2.608309e-04 4.405318e-06 0.000000e+00  -2.696629e-04 4.607930e-06 0.000000e+00  -2.788276e-04 4.762713e-06 0.000000e+00  -2.882359e-04 4.863157e-06 0.000000e+00  -2.977647e-04 4.904048e-06 0.000000e+00  -3.072837e-04 4.880813e-06 0.000000e+00  -3.166732e-04 4.788725e-06 0.000000e+00  -3.258022e-04 4.623733e-06 0.000000e+00  -3.345176e-04 4.383415e-06 0.000000e+00  -3.426649e-04 4.066197e-06 0.000000e+00  -3.500993e-04 3.670473e-06 0.000000e+00  -3.566712e-04 3.195494e-06 0.000000e+00  -3.622222e-04 2.642328e-06 0.000000e+00  -3.665995e-04 2.012984e-06 0.000000e+00  -3.696602e-04 1.309473e-06 0.000000e+00  -3.712633e-04 5.347181e-07 0.000000e+00  -3.712736e-04 -3.065121e-07 0.000000e+00  -3.695690e-04 -1.208546e-06 0.000000e+00  -3.660364e-04 -2.165778e-06 0.000000e+00  -3.605722e-04 -3.171774e-06 0.000000e+00  -3.530923e-04 -4.218385e-06 0.000000e+00  -3.435320e-04 -5.296737e-06 0.000000e+00  -3.318348e-04 -6.398195e-06 0.000000e+00  -3.179589e-04 -7.513506e-06 0.000000e+00  -3.018948e-04 -8.632004e-06 0.000000e+00  -2.836567e-04 -9.742598e-06 0.000000e+00  -2.632640e-04 -1.083471e-05 0.000000e+00  -2.407546e-04 -1.189746e-05 0.000000e+00  -2.162078e-04 -1.291903e-05 0.000000e+00  -1.897284e-04 -1.388757e-05 0.000000e+00  -1.614212e-04 -1.479208e-05 0.000000e+00  -1.314098e-04 -1.562173e-05 0.000000e+00  -9.986499e-05 -1.636526e-05 0.000000e+00  -6.698083e-05 -1.701192e-05 0.000000e+00  -3.294312e-05 -1.755218e-05 0.000000e+00  2.046265e-06 -1.797713e-05 0.000000e+00  3.773783e-05 -1.827813e-05 0.000000e+00  7.386462e-05 -1.844752e-05 0.000000e+00  1.101791e-04 -1.847924e-05 0.000000e+00  1.464244e-04 -1.836832e-05 0.000000e+00  1.823005e-04 -1.811066e-05 0.000000e+00  2.174994e-04 -1.770362e-05 0.000000e+00  2.517463e-04 -1.714633e-05 0.000000e+00  2.847667e-04 -1.643943e-05 0.000000e+00  3.162519e-04 -1.558486e-05 0.000000e+00  3.458978e-04 -1.458630e-05 0.000000e+00  3.734477e-04 -1.344921e-05 0.000000e+00  3.986572e-04 -1.218064e-05 0.000000e+00  4.212591e-04 -1.078925e-05 0.000000e+00  4.410049e-04 -9.285415e-06 0.000000e+00  4.577062e-04 -7.681045e-06 0.000000e+00  4.711990e-04 -5.989467e-06 0.000000e+00  4.813093e-04 -4.225688e-06 0.000000e+00  4.878947e-04 -2.406237e-06 0.000000e+00  4.908828e-04 -5.486401e-07 0.000000e+00  4.902356e-04 1.328456e-06 0.000000e+00  4.859178e-04 3.204800e-06 0.000000e+00  4.779365e-04 5.058953e-06 0.000000e+00  4.663743e-04 6.869098e-06 0.000000e+00  4.513552e-04 8.612658e-06 0.000000e+00  4.330180e-04 1.026554e-05 0.000000e+00  4.115520e-04 1.180282e-05 0.000000e+00  3.872222e-04 1.319976e-05 0.000000e+00  3.603395e-04 1.443116e-05 0.000000e+00  3.312412e-04 1.547033e-05 0.000000e+00  3.003202e-04 1.628998e-05 0.000000e+00  2.680408e-04 1.686349e-05 0.000000e+00  2.349157e-04 1.716398e-05 0.000000e+00  2.014943e-04 1.716317e-05 0.000000e+00  1.683831e-04 1.683274e-05 0.000000e+00  1.362498e-04 1.614616e-05 0.000000e+00  1.058050e-04 1.507845e-05 0.000000e+00  7.779447e-05 1.360706e-05 0.000000e+00  5.299590e-05 1.171757e-05 0.000000e+00  3.218862e-05 9.414043e-06 0.000000e+00  1.609488e-05 6.738455e-06 0.000000e+00  5.270262e-06 3.817823e-06 0.000000e+00  -1.371712e-07 9.859928e-07 0.000000e+00  -9.135212e-07 -9.121524e-07 0.000000e+00  -2.416526e-10 -2.096732e-10 0.000000e+00  -4.826250e-11 1.601033e-11 0.000000e+00  8.120944e-07 -2.189129e-06 0.000000e+00  1.677059e-06 -1.648673e-06 0.000000e+00  9.923618e-07 5.587446e-07 0.000000e+00  -2.163006e-06 3.617873e-06 0.000000e+00  -8.247780e-06 6.990698e-06 0.000000e+00  -1.738960e-05 1.033784e-05 0.000000e+00  -2.948376e-05 1.344912e-05 0.000000e+00  -4.427407e-05 1.619690e-05 0.000000e+00  -6.140842e-05 1.850802e-05 0.000000e+00  -8.047956e-05 2.034664e-05 0.000000e+00  -1.010544e-04 2.170315e-05 0.000000e+00  -1.226956e-04 2.258687e-05 0.000000e+00  -1.449850e-04 2.302204e-05 0.000000e+00  -1.674974e-04 2.303845e-05 0.000000e+00  -1.898760e-04 2.267878e-05 0.000000e+00  -2.118105e-04 2.199029e-05 0.000000e+00  -2.329941e-04 2.101922e-05 0.000000e+00  -2.531575e-04 1.981379e-05 0.000000e+00  -2.721246e-04 1.842637e-05 0.000000e+00  -2.897726e-04 1.690814e-05 0.000000e+00  -3.059707e-04 1.530545e-05 0.000000e+00  -3.206261e-04 1.366284e-05 0.000000e+00  -3.337474e-04 1.202468e-05 0.000000e+00  -3.453866e-04 1.043144e-05 0.000000e+00  -3.555670e-04 8.917519e-06 0.000000e+00  -3.643396e-04 7.513682e-06 0.000000e+00  -3.718518e-04 6.248163e-06 0.000000e+00  -3.782775e-04 5.144244e-06 0.000000e+00  -3.837390e-04 4.219395e-06 0.000000e+00  -3.883719e-04 3.487036e-06 0.000000e+00  -3.923960e-04 2.956905e-06 0.000000e+00  -3.960390e-04 2.633907e-06 0.000000e+00  -3.994571e-04 2.518385e-06 0.000000e+00  -4.028051e-04 2.607090e-06 0.000000e+00  -4.063072e-04 2.892850e-06 0.000000e+00  -4.101790e-04 3.364516e-06 0.000000e+00  -4.145502e-04 4.008196e-06 0.000000e+00  -4.195373e-04 4.807418e-06 0.000000e+00  -4.253121e-04 5.742114e-06 0.000000e+00  -4.320243e-04 6.789505e-06 0.000000e+00  -4.397316e-04 7.926139e-06 0.000000e+00  -4.484710e-04 9.127264e-06 0.000000e+00  -4.583222e-04 1.036517e-05 0.000000e+00  -4.693350e-04 1.161087e-05 0.000000e+00  -4.814690e-04 1.283680e-05 0.000000e+00  -4.946605e-04 1.401545e-05 0.000000e+00  -5.088786e-04 1.511712e-05 0.000000e+00  -5.240606e-04 1.611232e-05 0.000000e+00  -5.400627e-04 1.697490e-05 0.000000e+00  -5.567211e-04 1.768007e-05 0.000000e+00  -5.738973e-04 1.820168e-05 0.000000e+00  -5.914247e-04 1.851511e-05 0.000000e+00  -6.090718e-04 1.860075e-05 0.000000e+00  -6.265949e-04 1.844149e-05 0.000000e+00  -6.437712e-04 1.801953e-05 0.000000e+00  -6.603579e-04 1.731971e-05 0.000000e+00  -6.760697e-04 1.633311e-05 0.000000e+00  -6.906197e-04 1.505412e-05 0.000000e+00  -7.037404e-04 1.347686e-05 0.000000e+00  -7.151555e-04 1.159880e-05 0.000000e+00  -7.245724e-04 9.424389e-06 0.000000e+00  -7.317097e-04 6.961657e-06 0.000000e+00  -7.363050e-04 4.218554e-06 0.000000e+00  -7.381000e-04 1.206520e-06 0.000000e+00  -7.368473e-04 -2.055884e-06 0.000000e+00  -7.323246e-04 -5.546696e-06 0.000000e+00  -7.243272e-04 -9.244311e-06 0.000000e+00  -7.126673e-04 -1.312395e-05 0.000000e+00  -6.971950e-04 -1.715423e-05 0.000000e+00  -6.777966e-04 -2.130109e-05 0.000000e+00  -6.543736e-04 -2.553145e-05 0.000000e+00  -6.268546e-04 -2.980990e-05 0.000000e+00  -5.952294e-04 -3.409560e-05 0.000000e+00  -5.595326e-04 -3.834616e-05 0.000000e+00  -5.198072e-04 -4.252123e-05 0.000000e+00  -4.761300e-04 -4.657941e-05 0.000000e+00  -4.286570e-04 -5.047556e-05 0.000000e+00  -3.775915e-04 -5.416459e-05 0.000000e+00  -3.231344e-04 -5.760479e-05 0.000000e+00  -2.655217e-04 -6.075498e-05 0.000000e+00  -2.050786e-04 -6.357243e-05 0.000000e+00  -1.421737e-04 -6.601639e-05 0.000000e+00  -7.715729e-05 -6.805086e-05 0.000000e+00  -1.040907e-05 -6.964225e-05 0.000000e+00  5.760075e-05 -7.075787e-05 0.000000e+00  1.263698e-04 -7.136892e-05 0.000000e+00  1.954350e-04 -7.145272e-05 0.000000e+00  2.643172e-04 -7.099075e-05 0.000000e+00  3.324537e-04 -6.996774e-05 0.000000e+00  3.992686e-04 -6.837403e-05 0.000000e+00  4.642505e-04 -6.620687e-05 0.000000e+00  5.268899e-04 -6.346899e-05 0.000000e+00  5.866107e-04 -6.016820e-05 0.000000e+00  6.428462e-04 -5.631895e-05 0.000000e+00  6.951214e-04 -5.194249e-05 0.000000e+00  7.429850e-04 -4.706603e-05 0.000000e+00  7.859403e-04 -4.172290e-05 0.000000e+00  8.235262e-04 -3.595309e-05 0.000000e+00  8.553971e-04 -2.980232e-05 0.000000e+00  8.812528e-04 -2.332172e-05 0.000000e+00  9.007723e-04 -1.656882e-05 0.000000e+00  9.136935e-04 -9.606980e-06 0.000000e+00  9.198884e-04 -2.503336e-06 0.000000e+00  9.192929e-04 4.670769e-06 0.000000e+00  9.118457e-04 1.183785e-05 0.000000e+00  8.975645e-04 1.891593e-05 0.000000e+00  8.766106e-04 2.582166e-05 0.000000e+00  8.492221e-04 3.246893e-05 0.000000e+00  8.156624e-04 3.876592e-05 0.000000e+00  7.762880e-04 4.461779e-05 0.000000e+00  7.315986e-04 4.993075e-05 0.000000e+00  6.821778e-04 5.460963e-05 0.000000e+00  6.286544e-04 5.855401e-05 0.000000e+00  5.717577e-04 6.166191e-05 0.000000e+00  5.123487e-04 6.383493e-05 0.000000e+00  4.513723e-04 6.497504e-05 0.000000e+00  3.898320e-04 6.498076e-05 0.000000e+00  3.288262e-04 6.375320e-05 0.000000e+00  2.695542e-04 6.120403e-05 0.000000e+00  2.132733e-04 5.725614e-05 0.000000e+00  1.612750e-04 5.184883e-05 0.000000e+00  1.148711e-04 4.496181e-05 0.000000e+00  7.532995e-05 3.665540e-05 0.000000e+00  4.376090e-05 2.713653e-05 0.000000e+00  2.094027e-05 1.690214e-05 0.000000e+00  7.013509e-06 7.046327e-06 0.000000e+00  9.695150e-07 -1.449062e-07 0.000000e+00  -2.353172e-10 -2.808724e-10 0.000000e+00  8.908875e-12 -2.914109e-11 0.000000e+00  2.292179e-07 -2.884193e-06 0.000000e+00  -5.042436e-07 -9.690466e-07 0.000000e+00  -3.787275e-06 3.831356e-06 0.000000e+00  -1.054111e-05 1.016743e-05 0.000000e+00  -2.123918e-05 1.710158e-05 0.000000e+00  -3.600338e-05 2.400071e-05 0.000000e+00  -5.469437e-05 3.044734e-05 0.000000e+00  -7.698712e-05 3.617471e-05 0.000000e+00  -1.024313e-04 4.102233e-05 0.000000e+00  -1.304992e-04 4.490576e-05 0.000000e+00  -1.606233e-04 4.779595e-05 0.000000e+00  -1.922244e-04 4.970476e-05 0.000000e+00  -2.247452e-04 5.067678e-05 0.000000e+00  -2.576095e-04 5.076940e-05 0.000000e+00  -2.903359e-04 5.006857e-05 0.000000e+00  -3.225037e-04 4.867094e-05 0.000000e+00  -3.536896e-04 4.667160e-05 0.000000e+00  -3.835189e-04 4.417062e-05 0.000000e+00  -4.117483e-04 4.127755e-05 0.000000e+00  -4.382065e-04 3.810000e-05 0.000000e+00  -4.627053e-04 3.473550e-05 0.000000e+00  -4.851079e-04 3.127811e-05 0.000000e+00  -5.054217e-04 2.782198e-05 0.000000e+00  -5.237141e-04 2.445316e-05 0.000000e+00  -5.400074e-04 2.124480e-05 0.000000e+00  -5.543619e-04 1.826255e-05 0.000000e+00  -5.669764e-04 1.556682e-05 0.000000e+00  -5.780869e-04 1.320752e-05 0.000000e+00  -5.878528e-04 1.122218e-05 0.000000e+00  -5.964516e-04 9.639737e-06 0.000000e+00  -6.041835e-04 8.481329e-06 0.000000e+00  -6.113598e-04 7.757749e-06 0.000000e+00  -6.181876e-04 7.470033e-06 0.000000e+00  -6.248719e-04 7.611555e-06 0.000000e+00  -6.317203e-04 8.167274e-06 0.000000e+00  -6.390278e-04 9.113585e-06 0.000000e+00  -6.469655e-04 1.042104e-05 0.000000e+00  -6.556866e-04 1.205467e-05 0.000000e+00  -6.654258e-04 1.397172e-05 0.000000e+00  -6.763878e-04 1.612359e-05 0.000000e+00  -6.886441e-04 1.846032e-05 0.000000e+00  -7.022381e-04 2.092916e-05 0.000000e+00  -7.172772e-04 2.347092e-05 0.000000e+00  -7.338270e-04 2.602368e-05 0.000000e+00  -7.518235e-04 2.852866e-05 0.000000e+00  -7.711712e-04 3.092724e-05 0.000000e+00  -7.918238e-04 3.315602e-05 0.000000e+00  -8.136909e-04 3.515200e-05 0.000000e+00  -8.365660e-04 3.685957e-05 0.000000e+00  -8.602150e-04 3.822609e-05 0.000000e+00  -8.844433e-04 3.919584e-05 0.000000e+00  -9.090164e-04 3.971640e-05 0.000000e+00  -9.336079e-04 3.974636e-05 0.000000e+00  -9.578743e-04 3.924968e-05 0.000000e+00  -9.815050e-04 3.818870e-05 0.000000e+00  -1.004161e-03 3.653140e-05 0.000000e+00  -1.025444e-03 3.425949e-05 0.000000e+00  -1.044952e-03 3.136166e-05 0.000000e+00  -1.062316e-03 2.782600e-05 0.000000e+00  -1.077151e-03 2.364763e-05 0.000000e+00  -1.089052e-03 1.883697e-05 0.000000e+00  -1.097629e-03 1.341213e-05 0.000000e+00  -1.102521e-03 7.390773e-06 0.000000e+00  -1.103372e-03 7.980663e-07 0.000000e+00  -1.099842e-03 -6.325347e-06 0.000000e+00  -1.091628e-03 -1.393155e-05 0.000000e+00  -1.078450e-03 -2.197367e-05 0.000000e+00  -1.060055e-03 -3.039804e-05 0.000000e+00  -1.036240e-03 -3.913668e-05 0.000000e+00  -1.006858e-03 -4.811587e-05 0.000000e+00  -9.717778e-04 -5.726437e-05 0.000000e+00  -9.309101e-04 -6.650595e-05 0.000000e+00  -8.842507e-04 -7.575257e-05 0.000000e+00  -8.318590e-04 -8.491299e-05 0.000000e+00  -7.738042e-04 -9.390067e-05 0.000000e+00  -7.102028e-04 -1.026268e-04 0.000000e+00  -6.412837e-04 -1.109946e-04 0.000000e+00  -5.673425e-04 -1.189073e-04 0.000000e+00  -4.886682e-04 -1.262758e-04 0.000000e+00  -4.055985e-04 -1.330122e-04 0.000000e+00  -3.185980e-04 -1.390251e-04 0.000000e+00  -2.281920e-04 -1.442276e-04 0.000000e+00  -1.348766e-04 -1.485431e-04 0.000000e+00  -3.918739e-05 -1.519002e-04 0.000000e+00  5.820996e-05 -1.542294e-04 0.000000e+00  1.566055e-04 -1.554698e-04 0.000000e+00  2.553491e-04 -1.555734e-04 0.000000e+00  3.537685e-04 -1.545015e-04 0.000000e+00  4.510721e-04 -1.522220e-04 0.000000e+00  5.464499e-04 -1.487152e-04 0.000000e+00  6.391873e-04 -1.439759e-04 0.000000e+00  7.285734e-04 -1.380109e-04 0.000000e+00  8.138003e-04 -1.308378e-04 0.000000e+00  8.940741e-04 -1.224884e-04 0.000000e+00  9.687340e-04 -1.130091e-04 0.000000e+00  1.037153e-03 -1.024590e-04 0.000000e+00  1.098638e-03 -9.091039e-05 0.000