<?xml version="1.0"?>
<VTKFile type="UnstructuredGrid"  version="0.1"  >
<UnstructuredGrid>
<Piece  NumberOfPoints="16641" NumberOfCells="32768">
<Points>
<DataArray  type="Float32"  NumberOfComponents="3"  format="ascii">0 0 0  0.0078125 0 0  0.015625 0 0  0.0234375 0 0  0.03125 0 0  0.0390625 0 0  0.046875 0 0  0.0546875 0 0  0.0625 0 0  0.0703125 0 0  0.078125 0 0  0.0859375 0 0  0.09375 0 0  0.101562 0 0  0.109375 0 0  0.117188 0 0  0.125 0 0  0.132812 0 0  0.140625 0 0  0.148438 0 0  0.15625 0 0  0.164062 0 0  0.171875 0 0  0.179688 0 0  0.1875 0 0  0.195312 0 0  0.203125 0 0  0.210938 0 0  0.21875 0 0  0.226562 0 0  0.234375 0 0  0.242188 0 0  0.25 0 0  0.257812 0 0  0.265625 0 0  0.273438 0 0  0.28125 0 0  0.289062 0 0  0.296875 0 0  0.304688 0 0  0.3125 0 0  0.320312 0 0  0.328125 0 0  0.335938 0 0  0.34375 0 0  0.351562 0 0  0.359375 0 0  0.367188 0 0  0.375 0 0  0.382812 0 0  0.390625 0 0  0.398438 0 0  0.40625 0 0  0.414062 0 0  0.421875 0 0  0.429688 0 0  0.4375 0 0  0.445312 0 0  0.453125 0 0  0.460938 0 0  0.46875 0 0  0.476562 0 0  0.484375 0 0  0.492188 0 0  0.5 0 0  0.507812 0 0  0.515625 0 0  0.523438 0 0  0.53125 0 0  0.539062 0 0  0.546875 0 0  0.554688 0 0  0.5625 0 0  0.570312 0 0  0.578125 0 0  0.585938 0 0  0.59375 0 0  0.601562 0 0  0.609375 0 0  0.617188 0 0  0.625 0 0  0.632812 0 0  0.640625 0 0  0.648438 0 0  0.65625 0 0  0.664062 0 0  0.671875 0 0  0.679688 0 0  0.6875 0 0  0.695312 0 0  0.703125 0 0  0.710938 0 0  0.71875 0 0  0.726562 0 0  0.734375 0 0  0.742188 0 0  0.75 0 0  0.757812 0 0  0.765625 0 0  0.773438 0 0  0.78125 0 0  0.789062 0 0  0.796875 0 0  0.804688 0 0  0.8125 0 0  0.820312 0 0  0.828125 0 0  0.835938 0 0  0.84375 0 0  0.851562 0 0  0.859375 0 0  0.867188 0 0  0.875 0 0  0.882812 0 0  0.890625 0 0  0.898438 0 0  0.90625 0 0  0.914062 0 0  0.921875 0 0  0.929688 0 0  0.9375 0 0  0.945312 0 0  0.953125 0 0  0.960938 0 0  0.96875 0 0  0.976562 0 0  0.984375 0 0  0.992188 0 0  1 0 0  0 0.0078125 0  0.0078125 0.0078125 0  0.015625 0.0078125 0  0.0234375 0.0078125 0  0.03125 0.0078125 0  0.0390625 0.0078125 0  0.046875 0.0078125 0  0.0546875 0.0078125 0  0.0625 0.0078125 0  0.0703125 0.0078125 0  0.078125 0.0078125 0  0.0859375 0.0078125 0  0.09375 0.0078125 0  0.101562 0.0078125 0  0.109375 0.0078125 0  0.117188 0.0078125 0  0.125 0.0078125 0  0.132812 0.0078125 0  0.140625 0.0078125 0  0.148438 0.0078125 0  0.15625 0.0078125 0  0.164062 0.0078125 0  0.171875 0.0078125 0  0.179688 0.0078125 0  0.1875 0.0078125 0  0.195312 0.0078125 0  0.203125 0.0078125 0  0.210938 0.0078125 0  0.21875 0.0078125 0  0.226562 0.0078125 0  0.234375 0.0078125 0  0.242188 0.0078125 0  0.25 0.0078125 0  0.257812 0.0078125 0  0.265625 0.0078125 0  0.273438 0.0078125 0  0.28125 0.0078125 0  0.289062 0.0078125 0  0.296875 0.0078125 0  0.304688 0.0078125 0  0.3125 0.0078125 0  0.320312 0.0078125 0  0.328125 0.0078125 0  0.335938 0.0078125 0  0.34375 0.0078125 0  0.351562 0.0078125 0  0.359375 0.0078125 0  0.367188 0.0078125 0  0.375 0.0078125 0  0.382812 0.0078125 0  0.390625 0.0078125 0  0.398438 0.0078125 0  0.40625 0.0078125 0  0.414062 0.0078125 0  0.421875 0.0078125 0  0.429688 0.0078125 0  0.4375 0.0078125 0  0.445312 0.0078125 0  0.453125 0.0078125 0  0.460938 0.0078125 0  0.46875 0.0078125 0  0.476562 0.0078125 0  0.484375 0.0078125 0  0.492188 0.0078125 0  0.5 0.0078125 0  0.507812 0.0078125 0  0.515625 0.0078125 0  0.523438 0.0078125 0  0.53125 0.0078125 0  0.539062 0.0078125 0  0.546875 0.0078125 0  0.554688 0.0078125 0  0.5625 0.0078125 0  0.570312 0.0078125 0  0.578125 0.0078125 0  0.585938 0.0078125 0  0.59375 0.0078125 0  0.601562 0.0078125 0  0.609375 0.0078125 0  0.617188 0.0078125 0  0.625 0.0078125 0  0.632812 0.0078125 0  0.640625 0.0078125 0  0.648438 0.0078125 0  0.65625 0.0078125 0  0.664062 0.0078125 0  0.671875 0.0078125 0  0.679688 0.0078125 0  0.6875 0.0078125 0  0.695312 0.0078125 0  0.703125 0.0078125 0  0.710938 0.0078125 0  0.71875 0.0078125 0  0.726562 0.0078125 0  0.734375 0.0078125 0  0.742188 0.0078125 0  0.75 0.0078125 0  0.757812 0.0078125 0  0.765625 0.0078125 0  0.773438 0.0078125 0  0.78125 0.0078125 0  0.789062 0.0078125 0  0.796875 0.0078125 0  0.804688 0.0078125 0  0.8125 0.0078125 0  0.820312 0.0078125 0  0.828125 0.0078125 0  0.835938 0.0078125 0  0.84375 0.0078125 0  0.851562 0.0078125 0  0.859375 0.0078125 0  0.867188 0.0078125 0  0.875 0.0078125 0  0.882812 0.0078125 0  0.890625 0.0078125 0  0.898438 0.0078125 0  0.90625 0.0078125 0  0.914062 0.0078125 0  0.921875 0.0078125 0  0.929688 0.0078125 0  0.9375 0.0078125 0  0.945312 0.0078125 0  0.953125 0.0078125 0  0.960938 0.0078125 0  0.96875 0.0078125 0  0.976562 0.0078125 0  0.984375 0.0078125 0  0.992188 0.0078125 0  1 0.0078125 0  0 0.015625 0  0.0078125 0.015625 0  0.015625 0.015625 0  0.0234375 0.015625 0  0.03125 0.015625 0  0.0390625 0.015625 0  0.046875 0.015625 0  0.0546875 0.015625 0  0.0625 0.015625 0  0.0703125 0.015625 0  0.078125 0.015625 0  0.0859375 0.015625 0  0.09375 0.015625 0  0.101562 0.015625 0  0.109375 0.015625 0  0.117188 0.015625 0  0.125 0.015625 0  0.132812 0.015625 0  0.140625 0.015625 0  0.148438 0.015625 0  0.15625 0.015625 0  0.164062 0.015625 0  0.171875 0.015625 0  0.179688 0.015625 0  0.1875 0.015625 0  0.195312 0.015625 0  0.203125 0.015625 0  0.210938 0.015625 0  0.21875 0.015625 0  0.226562 0.015625 0  0.234375 0.015625 0  0.242188 0.015625 0  0.25 0.015625 0  0.257812 0.015625 0  0.265625 0.015625 0  0.273438 0.015625 0  0.28125 0.015625 0  0.289062 0.015625 0  0.296875 0.015625 0  0.304688 0.015625 0  0.3125 0.015625 0  0.320312 0.015625 0  0.328125 0.015625 0  0.335938 0.015625 0  0.34375 0.015625 0  0.351562 0.015625 0  0.359375 0.015625 0  0.367188 0.015625 0  0.375 0.015625 0  0.382812 0.015625 0  0.390625 0.015625 0  0.398438 0.015625 0  0.40625 0.015625 0  0.414062 0.015625 0  0.421875 0.015625 0  0.429688 0.015625 0  0.4375 0.015625 0  0.445312 0.015625 0  0.453125 0.015625 0  0.460938 0.015625 0  0.46875 0.015625 0  0.476562 0.015625 0  0.484375 0.015625 0  0.492188 0.015625 0  0.5 0.015625 0  0.507812 0.015625 0  0.515625 0.015625 0  0.523438 0.015625 0  0.53125 0.015625 0  0.539062 0.015625 0  0.546875 0.015625 0  0.554688 0.015625 0  0.5625 0.015625 0  0.570312 0.015625 0  0.578125 0.015625 0  0.585938 0.015625 0  0.59375 0.015625 0  0.601562 0.015625 0  0.609375 0.015625 0  0.617188 0.015625 0  0.625 0.015625 0  0.632812 0.015625 0  0.640625 0.015625 0  0.648438 0.015625 0  0.65625 0.015625 0  0.664062 0.015625 0  0.671875 0.015625 0  0.679688 0.015625 0  0.6875 0.015625 0  0.695312 0.015625 0  0.703125 0.015625 0  0.710938 0.015625 0  0.71875 0.015625 0  0.726562 0.015625 0  0.734375 0.015625 0  0.742188 0.015625 0  0.75 0.015625 0  0.757812 0.015625 0  0.765625 0.015625 0  0.773438 0.015625 0  0.78125 0.015625 0  0.789062 0.015625 0  0.796875 0.015625 0  0.804688 0.015625 0  0.8125 0.015625 0  0.820312 0.015625 0  0.828125 0.015625 0  0.835938 0.015625 0  0.84375 0.015625 0  0.851562 0.015625 0  0.859375 0.015625 0  0.867188 0.015625 0  0.875 0.015625 0  0.882812 0.015625 0  0.890625 0.015625 0  0.898438 0.015625 0  0.90625 0.015625 0  0.914062 0.015625 0  0.921875 0.015625 0  0.929688 0.015625 0  0.9375 0.015625 0  0.945312 0.015625 0  0.953125 0.015625 0  0.960938 0.015625 0  0.96875 0.015625 0  0.976562 0.015625 0  0.984375 0.015625 0  0.992188 0.015625 0  1 0.015625 0  0 0.0234375 0  0.0078125 0.0234375 0  0.015625 0.0234375 0  0.0234375 0.0234375 0  0.03125 0.0234375 0  0.0390625 0.0234375 0  0.046875 0.0234375 0  0.0546875 0.0234375 0  0.0625 0.0234375 0  0.0703125 0.0234375 0  0.078125 0.0234375 0  0.0859375 0.0234375 0  0.09375 0.0234375 0  0.101562 0.0234375 0  0.109375 0.0234375 0  0.117188 0.0234375 0  0.125 0.0234375 0  0.132812 0.0234375 0  0.140625 0.0234375 0  0.148438 0.0234375 0  0.15625 0.0234375 0  0.164062 0.0234375 0  0.171875 0.0234375 0  0.179688 0.0234375 0  0.1875 0.0234375 0  0.195312 0.0234375 0  0.203125 0.0234375 0  0.210938 0.0234375 0  0.21875 0.0234375 0  0.226562 0.0234375 0  0.234375 0.0234375 0  0.242188 0.0234375 0  0.25 0.0234375 0  0.257812 0.0234375 0  0.265625 0.0234375 0  0.273438 0.0234375 0  0.28125 0.0234375 0  0.289062 0.0234375 0  0.296875 0.0234375 0  0.304688 0.0234375 0  0.3125 0.0234375 0  0.320312 0.0234375 0  0.328125 0.0234375 0  0.335938 0.0234375 0  0.34375 0.0234375 0  0.351562 0.0234375 0  0.359375 0.0234375 0  0.367188 0.0234375 0  0.375 0.0234375 0  0.382812 0.0234375 0  0.390625 0.0234375 0  0.398438 0.0234375 0  0.40625 0.0234375 0  0.414062 0.0234375 0  0.421875 0.0234375 0  0.429688 0.0234375 0  0.4375 0.0234375 0  0.445312 0.0234375 0  0.453125 0.0234375 0  0.460938 0.0234375 0  0.46875 0.0234375 0  0.476562 0.0234375 0  0.484375 0.0234375 0  0.492188 0.0234375 0  0.5 0.0234375 0  0.507812 0.0234375 0  0.515625 0.0234375 0  0.523438 0.0234375 0  0.53125 0.0234375 0  0.539062 0.0234375 0  0.546875 0.0234375 0  0.554688 0.0234375 0  0.5625 0.0234375 0  0.570312 0.0234375 0  0.578125 0.0234375 0  0.585938 0.0234375 0  0.59375 0.0234375 0  0.601562 0.0234375 0  0.609375 0.0234375 0  0.617188 0.0234375 0  0.625 0.0234375 0  0.632812 0.0234375 0  0.640625 0.0234375 0  0.648438 0.0234375 0  0.65625 0.0234375 0  0.664062 0.0234375 0  0.671875 0.0234375 0  0.679688 0.0234375 0  0.6875 0.0234375 0  0.695312 0.0234375 0  0.703125 0.0234375 0  0.710938 0.0234375 0  0.71875 0.0234375 0  0.726562 0.0234375 0  0.734375 0.0234375 0  0.742188 0.0234375 0  0.75 0.0234375 0  0.757812 0.0234375 0  0.765625 0.0234375 0  0.773438 0.0234375 0  0.78125 0.0234375 0  0.789062 0.0234375 0  0.796875 0.0234375 0  0.804688 0.0234375 0  0.8125 0.0234375 0  0.820312 0.0234375 0  0.828125 0.0234375 0  0.835938 0.0234375 0  0.84375 0.0234375 0  0.851562 0.0234375 0  0.859375 0.0234375 0  0.867188 0.0234375 0  0.875 0.0234375 0  0.882812 0.0234375 0  0.890625 0.0234375 0  0.898438 0.0234375 0  0.90625 0.0234375 0  0.914062 0.0234375 0  0.921875 0.0234375 0  0.929688 0.0234375 0  0.9375 0.0234375 0  0.945312 0.0234
[...]
<PointData  Vectors="u"> 
<DataArray  type="Float32"  Name="u"  NumberOfComponents="3" format="ascii">2.973326e-12 1.166585e-12 0.000000e+00  -1.217831e-12 1.662251e-12 0.000000e+00  2.746470e-12 -5.998394e-12 0.000000e+00  5.317688e-12 -1.365286e-11 0.000000e+00  2.143725e-11 -2.577695e-11 0.000000e+00  5.232215e-11 -3.925081e-11 0.000000e+00  9.950060e-11 -5.252279e-11 0.000000e+00  1.621341e-10 -6.455138e-11 0.000000e+00  2.383421e-10 -7.470101e-11 0.000000e+00  3.257389e-10 -8.266717e-11 0.000000e+00  4.217224e-10 -8.834528e-11 0.000000e+00  5.236241e-10 -9.174649e-11 0.000000e+00  6.289542e-10 -9.296334e-11 0.000000e+00  7.349993e-10 -9.210214e-11 0.000000e+00  8.396520e-10 -8.934803e-11 0.000000e+00  9.407293e-10 -8.487226e-11 0.000000e+00  1.036202e-09 -7.885882e-11 0.000000e+00  1.124507e-09 -7.151951e-11 0.000000e+00  1.204300e-09 -6.306401e-11 0.000000e+00  1.274179e-09 -5.368621e-11 0.000000e+00  1.333027e-09 -4.358583e-11 0.000000e+00  1.380291e-09 -3.297071e-11 0.000000e+00  1.415547e-09 -2.203140e-11 0.000000e+00  1.438228e-09 -1.094361e-11 0.000000e+00  1.448111e-09 1.136372e-13 0.000000e+00  1.445537e-09 1.097191e-11 0.000000e+00  1.430848e-09 2.148958e-11 0.000000e+00  1.404187e-09 3.153214e-11 0.000000e+00  1.366077e-09 4.096294e-11 0.000000e+00  1.317531e-09 4.967146e-11 0.000000e+00  1.259403e-09 5.757836e-11 0.000000e+00  1.192335e-09 6.460231e-11 0.000000e+00  1.117383e-09 7.066069e-11 0.000000e+00  1.035939e-09 7.570712e-11 0.000000e+00  9.490845e-10 7.972563e-11 0.000000e+00  8.577217e-10 8.269058e-11 0.000000e+00  7.631761e-10 8.457634e-11 0.000000e+00  6.669305e-10 8.539676e-11 0.000000e+00  5.700219e-10 8.519063e-11 0.000000e+00  4.733732e-10 8.398268e-11 0.000000e+00  3.783244e-10 8.179961e-11 0.000000e+00  2.861883e-10 7.870385e-11 0.000000e+00  1.977434e-10 7.477370e-11 0.000000e+00  1.137296e-10 7.007298e-11 0.000000e+00  3.527701e-11 6.466999e-11 0.000000e+00  -3.666569e-11 5.865908e-11 0.000000e+00  -1.017162e-10 5.213935e-11 0.000000e+00  -1.594629e-10 4.519862e-11 0.000000e+00  -2.091531e-10 3.793187e-11 0.000000e+00  -2.503141e-10 3.044655e-11 0.000000e+00  -2.830110e-10 2.284332e-11 0.000000e+00  -3.072345e-10 1.521734e-11 0.000000e+00  -3.227036e-10 7.673282e-12 0.000000e+00  -3.294479e-10 3.131849e-13 0.000000e+00  -3.279472e-10 -6.777940e-12 0.000000e+00  -3.185942e-10 -1.351375e-11 0.000000e+00  -3.015953e-10 -1.979699e-11 0.000000e+00  -2.774276e-10 -2.554692e-11 0.000000e+00  -2.468839e-10 -3.070751e-11 0.000000e+00  -2.106895e-10 -3.521517e-11 0.000000e+00  -1.694777e-10 -3.899519e-11 0.000000e+00  -1.240536e-10 -4.199997e-11 0.000000e+00  -7.537141e-11 -4.421058e-11 0.000000e+00  -2.436417e-11 -4.559642e-11 0.000000e+00  2.803260e-11 -4.611698e-11 0.000000e+00  8.085025e-11 -4.576423e-11 0.000000e+00  1.331482e-10 -4.455885e-11 0.000000e+00  1.839475e-10 -4.250861e-11 0.000000e+00  2.321818e-10 -3.961399e-11 0.000000e+00  2.769016e-10 -3.590721e-11 0.000000e+00  3.173531e-10 -3.144522e-11 0.000000e+00  3.526880e-10 -2.627427e-11 0.000000e+00  3.819017e-10 -2.043672e-11 0.000000e+00  4.042391e-10 -1.399991e-11 0.000000e+00  4.192796e-10 -7.048571e-12 0.000000e+00  4.264714e-10 3.380982e-13 0.000000e+00  4.250584e-10 8.081154e-12 0.000000e+00  4.146220e-10 1.608859e-11 0.000000e+00  3.951733e-10 2.426055e-11 0.000000e+00  3.665869e-10 3.249566e-11 0.000000e+00  3.285075e-10 4.068974e-11 0.000000e+00  2.809400e-10 4.874074e-11 0.000000e+00  2.243617e-10 5.654928e-11 0.000000e+00  1.591457e-10 6.400684e-11 0.000000e+00  8.542867e-11 7.100048e-11 0.000000e+00  3.654551e-12 7.743541e-11 0.000000e+00  -8.527194e-11 8.322943e-11 0.000000e+00  -1.804820e-10 8.828485e-11 0.000000e+00  -2.813380e-10 9.249974e-11 0.000000e+00  -3.870214e-10 9.580468e-11 0.000000e+00  -4.963130e-10 9.815057e-11 0.000000e+00  -6.079353e-10 9.946923e-11 0.000000e+00  -7.208353e-10 9.969063e-11 0.000000e+00  -8.339624e-10 9.878711e-11 0.000000e+00  -9.459625e-10 9.675576e-11 0.000000e+00  -1.055321e-09 9.357500e-11 0.000000e+00  -1.160746e-09 8.922547e-11 0.000000e+00  -1.261167e-09 8.373363e-11 0.000000e+00  -1.355323e-09 7.715105e-11 0.000000e+00  -1.441704e-09 6.951532e-11 0.000000e+00  -1.519039e-09 6.087131e-11 0.000000e+00  -1.586486e-09 5.130550e-11 0.000000e+00  -1.643135e-09 4.092573e-11 0.000000e+00  -1.687766e-09 2.983429e-11 0.000000e+00  -1.719434e-09 1.814539e-11 0.000000e+00  -1.737794e-09 6.003021e-12 0.000000e+00  -1.742529e-09 -6.434403e-12 0.000000e+00  -1.733013e-09 -1.900370e-11 0.000000e+00  -1.708931e-09 -3.152742e-11 0.000000e+00  -1.670669e-09 -4.381604e-11 0.000000e+00  -1.618717e-09 -5.567462e-11 0.000000e+00  -1.553299e-09 -6.689390e-11 0.000000e+00  -1.474990e-09 -7.725264e-11 0.000000e+00  -1.385073e-09 -8.653857e-11 0.000000e+00  -1.284968e-09 -9.454368e-11 0.000000e+00  -1.175926e-09 -1.010415e-10 0.000000e+00  -1.059555e-09 -1.058040e-10 0.000000e+00  -9.380710e-10 -1.086352e-10 0.000000e+00  -8.138341e-10 -1.093563e-10 0.000000e+00  -6.891314e-10 -1.077815e-10 0.000000e+00  -5.665339e-10 -1.037547e-10 0.000000e+00  -4.490152e-10 -9.719147e-11 0.000000e+00  -3.396295e-10 -8.808118e-11 0.000000e+00  -2.413429e-10 -7.646963e-11 0.000000e+00  -1.571630e-10 -6.250989e-11 0.000000e+00  -9.023017e-11 -4.681821e-11 0.000000e+00  -4.318647e-11 -3.042252e-11 0.000000e+00  -1.794415e-11 -1.801456e-11 0.000000e+00  -1.333974e-11 -1.795228e-11 0.000000e+00  -4.699112e-12 1.965362e-12 0.000000e+00  5.564231e-08 -5.545088e-08 0.000000e+00  5.356910e-08 2.373678e-08 0.000000e+00  -1.517694e-07 1.525632e-07 0.000000e+00  -6.078792e-07 2.894557e-07 0.000000e+00  -1.313781e-06 4.172045e-07 0.000000e+00  -2.246210e-06 5.280860e-07 0.000000e+00  -3.371012e-06 6.188884e-07 0.000000e+00  -4.649543e-06 6.885951e-07 0.000000e+00  -6.041899e-06 7.373323e-07 0.000000e+00  -7.508738e-06 7.658733e-07 0.000000e+00  -9.012357e-06 7.753785e-07 0.000000e+00  -1.051738e-05 7.672450e-07 0.000000e+00  -1.199499e-05 7.433342e-07 0.000000e+00  -1.340414e-05 7.044166e-07 0.000000e+00  -1.472498e-05 6.528145e-07 0.000000e+00  -1.594541e-05 5.907982e-07 0.000000e+00  -1.703691e-05 5.195593e-07 0.000000e+00  -1.797034e-05 4.403747e-07 0.000000e+00  -1.874370e-05 3.554591e-07 0.000000e+00  -1.936177e-05 2.668696e-07 0.000000e+00  -1.980520e-05 1.757553e-07 0.000000e+00  -2.005461e-05 8.330407e-08 0.000000e+00  -2.012388e-05 -8.664220e-09 0.000000e+00  -2.003216e-05 -9.854074e-08 0.000000e+00  -1.976818e-05 -1.854067e-07 0.000000e+00  -1.932096e-05 -2.683383e-07 0.000000e+00  -1.871655e-05 -3.460710e-07 0.000000e+00  -1.798442e-05 -4.175731e-07 0.000000e+00  -1.711916e-05 -4.822648e-07 0.000000e+00  -1.611571e-05 -5.395802e-07 0.000000e+00  -1.500770e-05 -5.888737e-07 0.000000e+00  -1.383020e-05 -6.297302e-07 0.000000e+00  -1.258087e-05 -6.619418e-07 0.000000e+00  -1.125768e-05 -6.853181e-07 0.000000e+00  -9.896978e-06 -6.998143e-07 0.000000e+00  -8.534770e-06 -7.055941e-07 0.000000e+00  -7.168956e-06 -7.027881e-07 0.000000e+00  -5.797749e-06 -6.915342e-07 0.000000e+00  -4.455829e-06 -6.723050e-07 0.000000e+00  -3.175935e-06 -6.457448e-07 0.000000e+00  -1.953892e-06 -6.122378e-07 0.000000e+00  -7.859192e-07 -5.721561e-07 0.000000e+00  2.985550e-07 -5.263599e-07 0.000000e+00  1.273289e-06 -4.758360e-07 0.000000e+00  2.146067e-06 -4.211043e-07 0.000000e+00  2.924034e-06 -3.626489e-07 0.000000e+00  3.585474e-06 -3.015629e-07 0.000000e+00  4.112709e-06 -2.390179e-07 0.000000e+00  4.517678e-06 -1.755387e-07 0.000000e+00  4.811266e-06 -1.115902e-07 0.000000e+00  4.980685e-06 -4.833897e-08 0.000000e+00  5.017640e-06 1.301702e-08 0.000000e+00  4.937754e-06 7.207410e-08 0.000000e+00  4.755028e-06 1.285086e-07 0.000000e+00  4.465604e-06 1.812276e-07 0.000000e+00  4.070205e-06 2.291492e-07 0.000000e+00  3.586751e-06 2.720965e-07 0.000000e+00  3.030863e-06 3.099856e-07 0.000000e+00  2.406558e-06 3.419186e-07 0.000000e+00  1.722199e-06 3.670423e-07 0.000000e+00  9.959116e-07 3.854800e-07 0.000000e+00  2.427965e-07 3.974518e-07 0.000000e+00  -5.271206e-07 4.023390e-07 0.000000e+00  -1.299948e-06 3.995911e-07 0.000000e+00  -2.059872e-06 3.896650e-07 0.000000e+00  -2.794790e-06 3.731066e-07 0.000000e+00  -3.491031e-06 3.496175e-07 0.000000e+00  -4.131695e-06 3.189794e-07 0.000000e+00  -4.705876e-06 2.819710e-07 0.000000e+00  -5.206947e-06 2.394401e-07 0.000000e+00  -5.620093e-06 1.914035e-07 0.000000e+00  -5.927981e-06 1.379591e-07 0.000000e+00  -6.126935e-06 8.014923e-08 0.000000e+00  -6.217907e-06 1.905463e-08 0.000000e+00  -6.187231e-06 -4.504258e-08 0.000000e+00  -6.019410e-06 -1.117883e-07 0.000000e+00  -5.719692e-06 -1.799768e-07 0.000000e+00  -5.298014e-06 -2.484048e-07 0.000000e+00  -4.743598e-06 -3.166138e-07 0.000000e+00  -4.044428e-06 -3.840909e-07 0.000000e+00  -3.215447e-06 -4.496022e-07 0.000000e+00  -2.275976e-06 -5.119641e-07 0.000000e+00  -1.219049e-06 -5.706607e-07 0.000000e+00  -3.690734e-08 -6.251440e-07 0.000000e+00  1.246209e-06 -6.743098e-07 0.000000e+00  2.602388e-06 -7.171563e-07 0.000000e+00  4.034860e-06 -7.532444e-07 0.000000e+00  5.547379e-06 -7.821263e-07 0.000000e+00  7.108079e-06 -8.029927e-07 0.000000e+00  8.682536e-06 -8.151870e-07 0.000000e+00  1.027137e-05 -8.184794e-07 0.000000e+00  1.187564e-05 -8.126515e-07 0.000000e+00  1.345876e-05 -7.973407e-07 0.000000e+00  1.498311e-05 -7.723810e-07 0.000000e+00  1.644878e-05 -7.378626e-07 0.000000e+00  1.785633e-05 -6.938982e-07 0.000000e+00  1.916849e-05 -6.406897e-07 0.000000e+00  2.034868e-05 -5.786675e-07 0.000000e+00  2.139928e-05 -5.083096e-07 0.000000e+00  2.232319e-05 -4.301154e-07 0.000000e+00  2.308715e-05 -3.449143e-07 0.000000e+00  2.366051e-05 -2.537786e-07 0.000000e+00  2.405101e-05 -1.575825e-07 0.000000e+00  2.426695e-05 -5.720458e-08 0.000000e+00  2.428397e-05 4.590627e-08 0.000000e+00  2.408232e-05 1.500658e-07 0.000000e+00  2.367793e-05 2.540663e-07 0.000000e+00  2.308720e-05 3.567286e-07 0.000000e+00  2.229922e-05 4.560735e-07 0.000000e+00  2.130944e-05 5.499194e-07 0.000000e+00  2.014409e-05 6.368619e-07 0.000000e+00  1.882940e-05 7.155686e-07 0.000000e+00  1.737141e-05 7.837056e-07 0.000000e+00  1.578379e-05 8.388028e-07 0.000000e+00  1.410368e-05 8.794692e-07 0.000000e+00  1.236749e-05 9.044374e-07 0.000000e+00  1.059973e-05 9.113123e-07 0.000000e+00  8.832976e-06 8.977148e-07 0.000000e+00  7.113564e-06 8.626545e-07 0.000000e+00  5.485710e-06 8.053964e-07 0.000000e+00  3.989816e-06 7.243366e-07 0.000000e+00  2.671715e-06 6.186334e-07 0.000000e+00  1.577166e-06 4.898782e-07 0.000000e+00  7.434612e-07 3.418443e-07 0.000000e+00  1.991884e-07 1.825295e-07 0.000000e+00  -5.078718e-08 3.230022e-08 0.000000e+00  -6.051323e-08 -6.065236e-08 0.000000e+00  -1.369639e-11 -1.215208e-11 0.000000e+00  6.629671e-13 -2.656702e-12 0.000000e+00  -2.220151e-08 -5.429599e-08 0.000000e+00  -2.472680e-07 2.498905e-07 0.000000e+00  -8.286980e-07 6.992464e-07 0.000000e+00  -1.824206e-06 1.180707e-06 0.000000e+00  -3.235704e-06 1.636138e-06 0.000000e+00  -5.030111e-06 2.036355e-06 0.000000e+00  -7.154592e-06 2.367424e-06 0.000000e+00  -9.546123e-06 2.623646e-06 0.000000e+00  -1.213730e-05 2.804019e-06 0.000000e+00  -1.486005e-05 2.910349e-06 0.000000e+00  -1.764797e-05 2.946198e-06 0.000000e+00  -2.043794e-05 2.916269e-06 0.000000e+00  -2.317880e-05 2.827132e-06 0.000000e+00  -2.579375e-05 2.681390e-06 0.000000e+00  -2.824781e-05 2.487634e-06 0.000000e+00  -3.052004e-05 2.254299e-06 0.000000e+00  -3.255642e-05 1.985745e-06 0.000000e+00  -3.430145e-05 1.686730e-06 0.000000e+00  -3.575237e-05 1.365644e-06 0.000000e+00  -3.691911e-05 1.030260e-06 0.000000e+00  -3.776396e-05 6.848745e-07 0.000000e+00  -3.824902e-05 3.340014e-07 0.000000e+00  -3.840094e-05 -1.539430e-08 0.000000e+00  -3.825627e-05 -3.571958e-07 0.000000e+00  -3.779212e-05 -6.879356e-07 0.000000e+00  -3.698600e-05 -1.004064e-06 0.000000e+00  -3.588736e-05 -1.300704e-06 0.000000e+00  -3.455207e-05 -1.573919e-06 0.000000e+00  -3.296812e-05 -1.821510e-06 0.000000e+00  -3.112407e-05 -2.041268e-06 0.000000e+00  -2.908364e-05 -2.230674e-06 0.000000e+00  -2.691334e-05 -2.388140e-06 0.000000e+00  -2.460692e-05 -2.512868e-06 0.000000e+00  -2.215874e-05 -2.604076e-06 0.000000e+00  -1.963780e-05 -2.661543e-06 0.000000e+00  -1.711245e-05 -2.685895e-06 0.000000e+00  -1.457706e-05 -2.677618e-06 0.000000e+00  -1.202665e-05 -2.637178e-06 0.000000e+00  -9.527238e-06 -2.566347e-06 0.000000e+00  -7.141141e-06 -2.467594e-06 0.000000e+00  -4.859052e-06 -2.342365e-06 0.000000e+00  -2.672548e-06 -2.192024e-06 0.000000e+00  -6.378774e-07 -2.019840e-06 0.000000e+00  1.194767e-06 -1.829600e-06 0.000000e+00  2.841197e-06 -1.623263e-06 0.000000e+00  4.315841e-06 -1.402625e-06 0.000000e+00  5.576874e-06 -1.171864e-06 0.000000e+00  6.590179e-06 -9.354791e-07 0.000000e+00  7.379069e-06 -6.954432e-07 0.000000e+00  7.964665e-06 -4.534848e-07 0.000000e+00  8.321918e-06 -2.140780e-07 0.000000e+00  8.434385e-06 1.817185e-08 0.000000e+00  8.331987e-06 2.417598e-07 0.000000e+00  8.041368e-06 4.554920e-07 0.000000e+00  7.554326e-06 6.551636e-07 0.000000e+00  6.871456e-06 8.366097e-07 0.000000e+00  6.026693e-06 9.991976e-07 0.000000e+00  5.049397e-06 1.142645e-06 0.000000e+00  3.946293e-06 1.263483e-06 0.000000e+00  2.732483e-06 1.358420e-06 0.000000e+00  1.441993e-06 1.427977e-06 0.000000e+00  1.029054e-07 1.473029e-06 0.000000e+00  -1.266588e-06 1.491165e-06 0.000000e+00  -2.640797e-06 1.480255e-06 0.000000e+00  -3.990312e-06 1.442099e-06 0.000000e+00  -5.292952e-06 1.378810e-06 0.000000e+00  -6.523452e-06 1.289197e-06 0.000000e+00  -7.650233e-06 1.172403e-06 0.000000e+00  -8.653348e-06 1.031459e-06 0.000000e+00  -9.521124e-06 8.696256e-07 0.000000e+00  -1.022589e-05 6.869123e-07 0.000000e+00  -1.073497e-05 4.836736e-07 0.000000e+00  -1.104221e-05 2.639471e-07 0.000000e+00  -1.115035e-05 3.187521e-08 0.000000e+00  -1.103356e-05 -2.115238e-07 0.000000e+00  -1.066234e-05 -4.649132e-07 0.000000e+00  -1.004743e-05 -7.236355e-07 0.000000e+00  -9.208556e-06 -9.830915e-07 0.000000e+00  -8.124990e-06 -1.241593e-06 0.000000e+00  -6.773468e-06 -1.497194e-06 0.000000e+00  -5.183008e-06 -1.745138e-06 0.000000e+00  -3.390992e-06 -1.980916e-06 0.000000e+00  -1.383525e-06 -2.202622e-06 0.000000e+00  8.549812e-07 -2.408175e-06 0.000000e+00  3.278037e-06 -2.593327e-06 0.000000e+00  5.832164e-06 -2.754277e-06 0.000000e+00  8.524581e-06 -2.889414e-06 0.000000e+00  1.136366e-05 -2.997040e-06 0.000000e+00  1.428863e-05 -3.074046e-06 0.000000e+00  1.723391e-05 -3.117964e-06 0.000000e+00  2.020213e-05 -3.127983e-06 0.000000e+00  2.319683e-05 -3.103277e-06 0.000000e+00  2.614855e-05 -3.042457e-06 0.000000e+00  2.898580e-05 -2.944941e-06 0.000000e+00  3.171048e-05 -2.811133e-06 0.000000e+00  3.432544e-05 -2.641469e-06 0.000000e+00  3.676001e-05 -2.436725e-06 0.000000e+00  3.894485e-05 -2.198603e-06 0.000000e+00  4.088632e-05 -1.928974e-06 0.000000e+00  4.259177e-05 -1.629740e-06 0.000000e+00  4.399815e-05 -1.304082e-06 0.000000e+00  4.504742e-05 -9.561469e-07 0.000000e+00  4.575602e-05 -5.892932e-07 0.000000e+00  4.614135e-05 -2.068561e-07 0.000000e+00  4.615717e-05 1.856243e-07 0.000000e+00  4.576587e-05 5.816892e-07 0.000000e+00  4.499913e-05 9.767471e-07 0.000000e+00  4.388927e-05 1.366345e-06 0.000000e+00  4.241515e-05 1.742947e-06 0.000000e+00  4.056750e-05 2.098258e-06 0.000000e+00  3.839679e-05 2.427010e-06 0.000000e+00  3.595325e-05 2.724231e-06 0.000000e+00  3.324694e-05 2.981123e-06 0.000000e+00  3.030203e-05 3.188437e-06 0.000000e+00  2.718836e-05 3.341133e-06 0.000000e+00  2.397389e-05 3.434672e-06 0.000000e+00  2.070177e-05 3.460305e-06 0.000000e+00  1.742948e-05 3.409558e-06 0.000000e+00  1.424132e-05 3.279436e-06 0.000000e+00  1.121650e-05 3.068079e-06 0.000000e+00  8.423351e-06 2.770717e-06 0.000000e+00  5.938132e-06 2.386027e-06 0.000000e+00  3.836937e-06 1.922262e-06 0.000000e+00  2.177916e-06 1.395730e-06 0.000000e+00  1.000300e-06 8.366135e-07 0.000000e+00  3.082037e-07 3.109685e-07 0.000000e+00  3.178541e-08 -5.057061e-08 0.000000e+00  -1.349615e-11 -1.609291e-11 0.000000e+00  4.189501e-12 -3.976324e-12 0.000000e+00  -1.496357e-07 1.479752e-07 0.000000e+00  -6.947327e-07 8.310609e-07 0.000000e+00  -1.742269e-06 1.745473e-06 0.000000e+00  -3.332572e-06 2.713659e-06 0.000000e+00  -5.458578e-06 3.633345e-06 0.000000e+00  -8.077409e-06 4.447342e-06 0.000000e+00  -1.112315e-05 5.125236e-06 0.000000e+00  -1.451607e-05 5.652723e-06 0.000000e+00  -1.816938e-05 6.025436e-06 0.000000e+00  -2.199402e-05 6.245316e-06 0.000000e+00  -2.590200e-05 6.318435e-06 0.000000e+00  -2.980874e-05 6.253641e-06 0.000000e+00  -3.364630e-05 6.064081e-06 0.000000e+00  -3.730681e-05 5.754553e-06 0.000000e+00  -4.074434e-05 5.342928e-06 0.000000e+00  -4.393228e-05 4.846899e-06 0.000000e+00  -4.679392e-05 4.275439e-06 0.000000e+00  -4.925003e-05 3.638449e-06 0.000000e+00  -5.129847e-05 2.953780e-06 0.000000e+00  -5.295485e-05 2.238008e-06 0.000000e+00  -5.416426e-05 1.500199e-06 0.000000e+00  -5.487121e-05 7.499244e-07 0.000000e+00  -5.511441e-05 2.139790e-09 0.000000e+00  -5.494649e-05 -7.300143e-07 0.000000e+00  -5.433282e-05 -1.439146e-06 0.000000e+00  -5.323921e-05 -2.117652e-06 0.000000e+00  -5.173628e-05 -2.754998e-06 0.000000e+00  -4.990380e-05 -3.342689e-06 0.000000e+00  -4.772223e-05 -3.875989e-06 0.000000e+00  -4.517286e-05 -4.350123e-06 0.000000e+00  -4.234648e-05 -4.759606e-06 0.000000e+00  -3.933789e-05 -5.100984e-06 0.000000e+00  -3.613571e-05 -5.372500e-06 0.000000e+00  -3.272948e-05 -5.572402e-06 0.000000e+00  -2.921763e-05 -5.700162e-06 0.000000e+00  -2.569764e-05 -5.757098e-06 0.000000e+00  -2.215919e-05 -5.744188e-06 0.000000e+00  -1.859303e-05 -5.662349e-06 0.000000e+00  -1.509352e-05 -5.515358e-06 0.000000e+00  -1.174979e-05 -5.308521e-06 0.000000e+00  -8.546621e-06 -5.044868e-06 0.000000e+00  -5.470262e-06 -4.727236e-06 0.000000e+00  -2.601442e-06 -4.362652e-06 0.000000e+00  -1.224235e-08 -3.959283e-06 0.000000e+00  2.321339e-06 -3.521257e-06 0.000000e+00  4.421099e-06 -3.052331e-06 0.000000e+00  6.226589e-06 -2.561519e-06 0.000000e+00  7.688399e-06 -2.058546e-06 0.000000e+00  8.840697e-06 -1.547562e-06 0.000000e+00  9.714259e-06 -1.032180e-06 0.000000e+00  1.027232e-05 -5.220734e-07 0.000000e+00  1.049047e-05 -2.721868e-08 0.000000e+00  1.041177e-05 4.492454e-07 0.000000e+00  1.007431e-05 9.048595e-07 0.000000e+00  9.465204e-06 1.330507e-06 0.000000e+00  8.584227e-06 1.717145e-06 0.000000e+00  7.479660e-06 2.063516e-06 0.000000e+00  6.192986e-06 2.369124e-06 0.000000e+00  4.732540e-06 2.626418e-06 0.000000e+00  3.118797e-06 2.828228e-06 0.000000e+00  1.399744e-06 2.975782e-06 0.000000e+00  -3.853671e-07 3.071071e-06 0.000000e+00  -2.211761e-06 3.108816e-06 0.000000e+00  -4.043750e-06 3.084336e-06 0.000000e+00  -5.840241e-06 3.001612e-06 0.000000e+00  -7.570693e-06 2.865300e-06 0.000000e+00  -9.200026e-06 2.672734e-06 0.000000e+00  -1.068391e-05 2.421976e-06 0.000000e+00  -1.199495e-05 2.119651e-06 0.000000e+00  -1.311774e-05 1.772873e-06 0.000000e+00  -1.401342e-05 1.381557e-06 0.000000e+00  -1.463576e-05 9.463726e-07 0.000000e+00  -1.497708e-05 4.761001e-07 0.000000e+00  -1.504253e-05 -2.026674e-08 0.000000e+00  -1.479548e-05 -5.406422e-07 0.000000e+00  -1.419372e-05 -1.082244e-06 0.000000e+00  -1.325361e-05 -1.634973e-06 0.000000e+00  -1.200443e-05 -2.188877e-06 0.000000e+00  -1.041626e-05 -2.740429e-06 0.000000e+00  -8.455279e-06 -3.285537e-06 0.000000e+00  -6.163734e-06 -3.813910e-06 0.000000e+00  -3.595877e-06 -4.315818e-06 0.000000e+00  -7.309386e-07 -4.787269e-06 0.000000e+00  2.454513e-06 -5.223875e-06 0.000000e+00  5.893559e-06 -5.616469e-06 0.000000e+00  9.509286e-06 -5.956875e-06 0.000000e+00  1.331351e-05 -6.241734e-06 0.000000e+00  1.731990e-05 -6.467476e-06 0.000000e+00  2.144146e-05 -6.627416e-06 0.000000e+00  2.558432e-05 -6.716275e-06 0.000000e+00  2.975423e-05 -6.732406e-06 0.000000e+00  3.395845e-05 -6.674107e-06 0.000000e+00  3.809780e-05 -6.538418e-06 0.000000e+00  4.207025e-05 -6.324145e-06 0.000000e+00  4.588092e-05 -6.032235e-06 0.000000e+00  4.953628e-05 -5.663680e-06 0.000000e+00  5.293562e-05 -5.220201e-06 0.00000