<?xml version="1.0"?>
<VTKFile type="UnstructuredGrid"  version="0.1"  >
<UnstructuredGrid>
<Piece  NumberOfPoints="16641" NumberOfCells="32768">
<Points>
<DataArray  type="Float32"  NumberOfComponents="3"  format="ascii">0 0 0  0.0078125 0 0  0.015625 0 0  0.0234375 0 0  0.03125 0 0  0.0390625 0 0  0.046875 0 0  0.0546875 0 0  0.0625 0 0  0.0703125 0 0  0.078125 0 0  0.0859375 0 0  0.09375 0 0  0.101562 0 0  0.109375 0 0  0.117188 0 0  0.125 0 0  0.132812 0 0  0.140625 0 0  0.148438 0 0  0.15625 0 0  0.164062 0 0  0.171875 0 0  0.179688 0 0  0.1875 0 0  0.195312 0 0  0.203125 0 0  0.210938 0 0  0.21875 0 0  0.226562 0 0  0.234375 0 0  0.242188 0 0  0.25 0 0  0.257812 0 0  0.265625 0 0  0.273438 0 0  0.28125 0 0  0.289062 0 0  0.296875 0 0  0.304688 0 0  0.3125 0 0  0.320312 0 0  0.328125 0 0  0.335938 0 0  0.34375 0 0  0.351562 0 0  0.359375 0 0  0.367188 0 0  0.375 0 0  0.382812 0 0  0.390625 0 0  0.398438 0 0  0.40625 0 0  0.414062 0 0  0.421875 0 0  0.429688 0 0  0.4375 0 0  0.445312 0 0  0.453125 0 0  0.460938 0 0  0.46875 0 0  0.476562 0 0  0.484375 0 0  0.492188 0 0  0.5 0 0  0.507812 0 0  0.515625 0 0  0.523438 0 0  0.53125 0 0  0.539062 0 0  0.546875 0 0  0.554688 0 0  0.5625 0 0  0.570312 0 0  0.578125 0 0  0.585938 0 0  0.59375 0 0  0.601562 0 0  0.609375 0 0  0.617188 0 0  0.625 0 0  0.632812 0 0  0.640625 0 0  0.648438 0 0  0.65625 0 0  0.664062 0 0  0.671875 0 0  0.679688 0 0  0.6875 0 0  0.695312 0 0  0.703125 0 0  0.710938 0 0  0.71875 0 0  0.726562 0 0  0.734375 0 0  0.742188 0 0  0.75 0 0  0.757812 0 0  0.765625 0 0  0.773438 0 0  0.78125 0 0  0.789062 0 0  0.796875 0 0  0.804688 0 0  0.8125 0 0  0.820312 0 0  0.828125 0 0  0.835938 0 0  0.84375 0 0  0.851562 0 0  0.859375 0 0  0.867188 0 0  0.875 0 0  0.882812 0 0  0.890625 0 0  0.898438 0 0  0.90625 0 0  0.914062 0 0  0.921875 0 0  0.929688 0 0  0.9375 0 0  0.945312 0 0  0.953125 0 0  0.960938 0 0  0.96875 0 0  0.976562 0 0  0.984375 0 0  0.992188 0 0  1 0 0  0 0.0078125 0  0.0078125 0.0078125 0  0.015625 0.0078125 0  0.0234375 0.0078125 0  0.03125 0.0078125 0  0.0390625 0.0078125 0  0.046875 0.0078125 0  0.0546875 0.0078125 0  0.0625 0.0078125 0  0.0703125 0.0078125 0  0.078125 0.0078125 0  0.0859375 0.0078125 0  0.09375 0.0078125 0  0.101562 0.0078125 0  0.109375 0.0078125 0  0.117188 0.0078125 0  0.125 0.0078125 0  0.132812 0.0078125 0  0.140625 0.0078125 0  0.148438 0.0078125 0  0.15625 0.0078125 0  0.164062 0.0078125 0  0.171875 0.0078125 0  0.179688 0.0078125 0  0.1875 0.0078125 0  0.195312 0.0078125 0  0.203125 0.0078125 0  0.210938 0.0078125 0  0.21875 0.0078125 0  0.226562 0.0078125 0  0.234375 0.0078125 0  0.242188 0.0078125 0  0.25 0.0078125 0  0.257812 0.0078125 0  0.265625 0.0078125 0  0.273438 0.0078125 0  0.28125 0.0078125 0  0.289062 0.0078125 0  0.296875 0.0078125 0  0.304688 0.0078125 0  0.3125 0.0078125 0  0.320312 0.0078125 0  0.328125 0.0078125 0  0.335938 0.0078125 0  0.34375 0.0078125 0  0.351562 0.0078125 0  0.359375 0.0078125 0  0.367188 0.0078125 0  0.375 0.0078125 0  0.382812 0.0078125 0  0.390625 0.0078125 0  0.398438 0.0078125 0  0.40625 0.0078125 0  0.414062 0.0078125 0  0.421875 0.0078125 0  0.429688 0.0078125 0  0.4375 0.0078125 0  0.445312 0.0078125 0  0.453125 0.0078125 0  0.460938 0.0078125 0  0.46875 0.0078125 0  0.476562 0.0078125 0  0.484375 0.0078125 0  0.492188 0.0078125 0  0.5 0.0078125 0  0.507812 0.0078125 0  0.515625 0.0078125 0  0.523438 0.0078125 0  0.53125 0.0078125 0  0.539062 0.0078125 0  0.546875 0.0078125 0  0.554688 0.0078125 0  0.5625 0.0078125 0  0.570312 0.0078125 0  0.578125 0.0078125 0  0.585938 0.0078125 0  0.59375 0.0078125 0  0.601562 0.0078125 0  0.609375 0.0078125 0  0.617188 0.0078125 0  0.625 0.0078125 0  0.632812 0.0078125 0  0.640625 0.0078125 0  0.648438 0.0078125 0  0.65625 0.0078125 0  0.664062 0.0078125 0  0.671875 0.0078125 0  0.679688 0.0078125 0  0.6875 0.0078125 0  0.695312 0.0078125 0  0.703125 0.0078125 0  0.710938 0.0078125 0  0.71875 0.0078125 0  0.726562 0.0078125 0  0.734375 0.0078125 0  0.742188 0.0078125 0  0.75 0.0078125 0  0.757812 0.0078125 0  0.765625 0.0078125 0  0.773438 0.0078125 0  0.78125 0.0078125 0  0.789062 0.0078125 0  0.796875 0.0078125 0  0.804688 0.0078125 0  0.8125 0.0078125 0  0.820312 0.0078125 0  0.828125 0.0078125 0  0.835938 0.0078125 0  0.84375 0.0078125 0  0.851562 0.0078125 0  0.859375 0.0078125 0  0.867188 0.0078125 0  0.875 0.0078125 0  0.882812 0.0078125 0  0.890625 0.0078125 0  0.898438 0.0078125 0  0.90625 0.0078125 0  0.914062 0.0078125 0  0.921875 0.0078125 0  0.929688 0.0078125 0  0.9375 0.0078125 0  0.945312 0.0078125 0  0.953125 0.0078125 0  0.960938 0.0078125 0  0.96875 0.0078125 0  0.976562 0.0078125 0  0.984375 0.0078125 0  0.992188 0.0078125 0  1 0.0078125 0  0 0.015625 0  0.0078125 0.015625 0  0.015625 0.015625 0  0.0234375 0.015625 0  0.03125 0.015625 0  0.0390625 0.015625 0  0.046875 0.015625 0  0.0546875 0.015625 0  0.0625 0.015625 0  0.0703125 0.015625 0  0.078125 0.015625 0  0.0859375 0.015625 0  0.09375 0.015625 0  0.101562 0.015625 0  0.109375 0.015625 0  0.117188 0.015625 0  0.125 0.015625 0  0.132812 0.015625 0  0.140625 0.015625 0  0.148438 0.015625 0  0.15625 0.015625 0  0.164062 0.015625 0  0.171875 0.015625 0  0.179688 0.015625 0  0.1875 0.015625 0  0.195312 0.015625 0  0.203125 0.015625 0  0.210938 0.015625 0  0.21875 0.015625 0  0.226562 0.015625 0  0.234375 0.015625 0  0.242188 0.015625 0  0.25 0.015625 0  0.257812 0.015625 0  0.265625 0.015625 0  0.273438 0.015625 0  0.28125 0.015625 0  0.289062 0.015625 0  0.296875 0.015625 0  0.304688 0.015625 0  0.3125 0.015625 0  0.320312 0.015625 0  0.328125 0.015625 0  0.335938 0.015625 0  0.34375 0.015625 0  0.351562 0.015625 0  0.359375 0.015625 0  0.367188 0.015625 0  0.375 0.015625 0  0.382812 0.015625 0  0.390625 0.015625 0  0.398438 0.015625 0  0.40625 0.015625 0  0.414062 0.015625 0  0.421875 0.015625 0  0.429688 0.015625 0  0.4375 0.015625 0  0.445312 0.015625 0  0.453125 0.015625 0  0.460938 0.015625 0  0.46875 0.015625 0  0.476562 0.015625 0  0.484375 0.015625 0  0.492188 0.015625 0  0.5 0.015625 0  0.507812 0.015625 0  0.515625 0.015625 0  0.523438 0.015625 0  0.53125 0.015625 0  0.539062 0.015625 0  0.546875 0.015625 0  0.554688 0.015625 0  0.5625 0.015625 0  0.570312 0.015625 0  0.578125 0.015625 0  0.585938 0.015625 0  0.59375 0.015625 0  0.601562 0.015625 0  0.609375 0.015625 0  0.617188 0.015625 0  0.625 0.015625 0  0.632812 0.015625 0  0.640625 0.015625 0  0.648438 0.015625 0  0.65625 0.015625 0  0.664062 0.015625 0  0.671875 0.015625 0  0.679688 0.015625 0  0.6875 0.015625 0  0.695312 0.015625 0  0.703125 0.015625 0  0.710938 0.015625 0  0.71875 0.015625 0  0.726562 0.015625 0  0.734375 0.015625 0  0.742188 0.015625 0  0.75 0.015625 0  0.757812 0.015625 0  0.765625 0.015625 0  0.773438 0.015625 0  0.78125 0.015625 0  0.789062 0.015625 0  0.796875 0.015625 0  0.804688 0.015625 0  0.8125 0.015625 0  0.820312 0.015625 0  0.828125 0.015625 0  0.835938 0.015625 0  0.84375 0.015625 0  0.851562 0.015625 0  0.859375 0.015625 0  0.867188 0.015625 0  0.875 0.015625 0  0.882812 0.015625 0  0.890625 0.015625 0  0.898438 0.015625 0  0.90625 0.015625 0  0.914062 0.015625 0  0.921875 0.015625 0  0.929688 0.015625 0  0.9375 0.015625 0  0.945312 0.015625 0  0.953125 0.015625 0  0.960938 0.015625 0  0.96875 0.015625 0  0.976562 0.015625 0  0.984375 0.015625 0  0.992188 0.015625 0  1 0.015625 0  0 0.0234375 0  0.0078125 0.0234375 0  0.015625 0.0234375 0  0.0234375 0.0234375 0  0.03125 0.0234375 0  0.0390625 0.0234375 0  0.046875 0.0234375 0  0.0546875 0.0234375 0  0.0625 0.0234375 0  0.0703125 0.0234375 0  0.078125 0.0234375 0  0.0859375 0.0234375 0  0.09375 0.0234375 0  0.101562 0.0234375 0  0.109375 0.0234375 0  0.117188 0.0234375 0  0.125 0.0234375 0  0.132812 0.0234375 0  0.140625 0.0234375 0  0.148438 0.0234375 0  0.15625 0.0234375 0  0.164062 0.0234375 0  0.171875 0.0234375 0  0.179688 0.0234375 0  0.1875 0.0234375 0  0.195312 0.0234375 0  0.203125 0.0234375 0  0.210938 0.0234375 0  0.21875 0.0234375 0  0.226562 0.0234375 0  0.234375 0.0234375 0  0.242188 0.0234375 0  0.25 0.0234375 0  0.257812 0.0234375 0  0.265625 0.0234375 0  0.273438 0.0234375 0  0.28125 0.0234375 0  0.289062 0.0234375 0  0.296875 0.0234375 0  0.304688 0.0234375 0  0.3125 0.0234375 0  0.320312 0.0234375 0  0.328125 0.0234375 0  0.335938 0.0234375 0  0.34375 0.0234375 0  0.351562 0.0234375 0  0.359375 0.0234375 0  0.367188 0.0234375 0  0.375 0.0234375 0  0.382812 0.0234375 0  0.390625 0.0234375 0  0.398438 0.0234375 0  0.40625 0.0234375 0  0.414062 0.0234375 0  0.421875 0.0234375 0  0.429688 0.0234375 0  0.4375 0.0234375 0  0.445312 0.0234375 0  0.453125 0.0234375 0  0.460938 0.0234375 0  0.46875 0.0234375 0  0.476562 0.0234375 0  0.484375 0.0234375 0  0.492188 0.0234375 0  0.5 0.0234375 0  0.507812 0.0234375 0  0.515625 0.0234375 0  0.523438 0.0234375 0  0.53125 0.0234375 0  0.539062 0.0234375 0  0.546875 0.0234375 0  0.554688 0.0234375 0  0.5625 0.0234375 0  0.570312 0.0234375 0  0.578125 0.0234375 0  0.585938 0.0234375 0  0.59375 0.0234375 0  0.601562 0.0234375 0  0.609375 0.0234375 0  0.617188 0.0234375 0  0.625 0.0234375 0  0.632812 0.0234375 0  0.640625 0.0234375 0  0.648438 0.0234375 0  0.65625 0.0234375 0  0.664062 0.0234375 0  0.671875 0.0234375 0  0.679688 0.0234375 0  0.6875 0.0234375 0  0.695312 0.0234375 0  0.703125 0.0234375 0  0.710938 0.0234375 0  0.71875 0.0234375 0  0.726562 0.0234375 0  0.734375 0.0234375 0  0.742188 0.0234375 0  0.75 0.0234375 0  0.757812 0.0234375 0  0.765625 0.0234375 0  0.773438 0.0234375 0  0.78125 0.0234375 0  0.789062 0.0234375 0  0.796875 0.0234375 0  0.804688 0.0234375 0  0.8125 0.0234375 0  0.820312 0.0234375 0  0.828125 0.0234375 0  0.835938 0.0234375 0  0.84375 0.0234375 0  0.851562 0.0234375 0  0.859375 0.0234375 0  0.867188 0.0234375 0  0.875 0.0234375 0  0.882812 0.0234375 0  0.890625 0.0234375 0  0.898438 0.0234375 0  0.90625 0.0234375 0  0.914062 0.0234375 0  0.921875 0.0234375 0  0.929688 0.0234375 0  0.9375 0.0234375 0  0.945312 0.0234
[...]
<PointData  Vectors="u"> 
<DataArray  type="Float32"  Name="u"  NumberOfComponents="3" format="ascii">2.973875e-12 1.166070e-12 0.000000e+00  -1.217358e-12 1.661997e-12 0.000000e+00  2.746020e-12 -5.997548e-12 0.000000e+00  5.316615e-12 -1.365155e-11 0.000000e+00  2.143475e-11 -2.577505e-11 0.000000e+00  5.231737e-11 -3.924833e-11 0.000000e+00  9.949287e-11 -5.251988e-11 0.000000e+00  1.621230e-10 -6.454819e-11 0.000000e+00  2.383273e-10 -7.469772e-11 0.000000e+00  3.257203e-10 -8.266393e-11 0.000000e+00  4.217002e-10 -8.834224e-11 0.000000e+00  5.235984e-10 -9.174378e-11 0.000000e+00  6.289256e-10 -9.296107e-11 0.000000e+00  7.349682e-10 -9.210041e-11 0.000000e+00  8.396191e-10 -8.934693e-11 0.000000e+00  9.406952e-10 -8.487183e-11 0.000000e+00  1.036168e-09 -7.885911e-11 0.000000e+00  1.124474e-09 -7.152052e-11 0.000000e+00  1.204267e-09 -6.306575e-11 0.000000e+00  1.274148e-09 -5.368864e-11 0.000000e+00  1.333000e-09 -4.358891e-11 0.000000e+00  1.380267e-09 -3.297437e-11 0.000000e+00  1.415527e-09 -2.203554e-11 0.000000e+00  1.438214e-09 -1.094815e-11 0.000000e+00  1.448101e-09 1.088324e-13 0.000000e+00  1.445533e-09 1.096697e-11 0.000000e+00  1.430850e-09 2.148463e-11 0.000000e+00  1.404194e-09 3.152732e-11 0.000000e+00  1.366090e-09 4.095838e-11 0.000000e+00  1.317549e-09 4.966729e-11 0.000000e+00  1.259425e-09 5.757471e-11 0.000000e+00  1.192362e-09 6.459928e-11 0.000000e+00  1.117412e-09 7.065838e-11 0.000000e+00  1.035971e-09 7.570561e-11 0.000000e+00  9.491181e-10 7.972497e-11 0.000000e+00  8.577558e-10 8.269081e-11 0.000000e+00  7.632098e-10 8.457749e-11 0.000000e+00  6.669626e-10 8.539883e-11 0.000000e+00  5.700514e-10 8.519360e-11 0.000000e+00  4.733991e-10 8.398653e-11 0.000000e+00  3.783457e-10 8.180429e-11 0.000000e+00  2.862041e-10 7.870931e-11 0.000000e+00  1.977529e-10 7.477988e-11 0.000000e+00  1.137320e-10 7.007982e-11 0.000000e+00  3.527148e-11 6.467741e-11 0.000000e+00  -3.667971e-11 5.866699e-11 0.000000e+00  -1.017393e-10 5.214770e-11 0.000000e+00  -1.594955e-10 4.520733e-11 0.000000e+00  -2.091955e-10 3.794087e-11 0.000000e+00  -2.503667e-10 3.045577e-11 0.000000e+00  -2.830741e-10 2.285270e-11 0.000000e+00  -3.073082e-10 1.522683e-11 0.000000e+00  -3.227880e-10 7.682815e-12 0.000000e+00  -3.295429e-10 3.227171e-13 0.000000e+00  -3.280530e-10 -6.768454e-12 0.000000e+00  -3.187106e-10 -1.350435e-11 0.000000e+00  -3.017222e-10 -1.978771e-11 0.000000e+00  -2.775649e-10 -2.553780e-11 0.000000e+00  -2.470313e-10 -3.069856e-11 0.000000e+00  -2.108468e-10 -3.520643e-11 0.000000e+00  -1.696448e-10 -3.898669e-11 0.000000e+00  -1.242301e-10 -4.199171e-11 0.000000e+00  -7.555707e-11 -4.420259e-11 0.000000e+00  -2.455872e-11 -4.558871e-11 0.000000e+00  2.782951e-11 -4.610956e-11 0.000000e+00  8.063898e-11 -4.575711e-11 0.000000e+00  1.329290e-10 -4.455203e-11 0.000000e+00  1.837208e-10 -4.250212e-11 0.000000e+00  2.319479e-10 -3.960782e-11 0.000000e+00  2.766609e-10 -3.590136e-11 0.000000e+00  3.171060e-10 -3.143970e-11 0.000000e+00  3.524347e-10 -2.626909e-11 0.000000e+00  3.816427e-10 -2.043188e-11 0.000000e+00  4.039748e-10 -1.399541e-11 0.000000e+00  4.190104e-10 -7.044418e-12 0.000000e+00  4.261975e-10 3.419041e-13 0.000000e+00  4.247803e-10 8.084600e-12 0.000000e+00  4.143401e-10 1.609166e-11 0.000000e+00  3.948881e-10 2.426324e-11 0.000000e+00  3.662986e-10 3.249794e-11 0.000000e+00  3.282167e-10 4.069159e-11 0.000000e+00  2.806471e-10 4.874212e-11 0.000000e+00  2.240673e-10 5.655017e-11 0.000000e+00  1.588503e-10 6.400719e-11 0.000000e+00  8.513289e-11 7.100024e-11 0.000000e+00  3.359072e-12 7.743454e-11 0.000000e+00  -8.556645e-11 8.322787e-11 0.000000e+00  -1.807747e-10 8.828255e-11 0.000000e+00  -2.816281e-10 9.249663e-11 0.000000e+00  -3.873080e-10 9.580072e-11 0.000000e+00  -4.965951e-10 9.814570e-11 0.000000e+00  -6.082120e-10 9.946341e-11 0.000000e+00  -7.211053e-10 9.968383e-11 0.000000e+00  -8.342246e-10 9.877931e-11 0.000000e+00  -9.462159e-10 9.674697e-11 0.000000e+00  -1.055564e-09 9.356522e-11 0.000000e+00  -1.160979e-09 8.921475e-11 0.000000e+00  -1.261387e-09 8.372202e-11 0.000000e+00  -1.355530e-09 7.713864e-11 0.000000e+00  -1.441897e-09 6.950220e-11 0.000000e+00  -1.519217e-09 6.085762e-11 0.000000e+00  -1.586648e-09 5.129138e-11 0.000000e+00  -1.643281e-09 4.091132e-11 0.000000e+00  -1.687896e-09 2.981978e-11 0.000000e+00  -1.719548e-09 1.813094e-11 0.000000e+00  -1.737891e-09 5.988820e-12 0.000000e+00  -1.742610e-09 -6.448179e-12 0.000000e+00  -1.733078e-09 -1.901688e-11 0.000000e+00  -1.708981e-09 -3.153985e-11 0.000000e+00  -1.670706e-09 -4.382756e-11 0.000000e+00  -1.618741e-09 -5.568511e-11 0.000000e+00  -1.553311e-09 -6.690326e-11 0.000000e+00  -1.474992e-09 -7.726077e-11 0.000000e+00  -1.385066e-09 -8.654541e-11 0.000000e+00  -1.284953e-09 -9.454921e-11 0.000000e+00  -1.175906e-09 -1.010457e-10 0.000000e+00  -1.059530e-09 -1.058068e-10 0.000000e+00  -9.380429e-10 -1.086368e-10 0.000000e+00  -8.138044e-10 -1.093567e-10 0.000000e+00  -6.891015e-10 -1.077808e-10 0.000000e+00  -5.665050e-10 -1.037531e-10 0.000000e+00  -4.489885e-10 -9.718898e-11 0.000000e+00  -3.396059e-10 -8.807805e-11 0.000000e+00  -2.413231e-10 -7.646608e-11 0.000000e+00  -1.571475e-10 -6.250619e-11 0.000000e+00  -9.021906e-11 -4.681469e-11 0.000000e+00  -4.317942e-11 -3.041946e-11 0.000000e+00  -1.793972e-11 -1.801180e-11 0.000000e+00  -1.333555e-11 -1.794909e-11 0.000000e+00  -4.698982e-12 1.965259e-12 0.000000e+00  5.564395e-08 -5.545204e-08 0.000000e+00  5.358191e-08 2.372790e-08 0.000000e+00  -1.517311e-07 1.525467e-07 0.000000e+00  -6.078025e-07 2.894329e-07 0.000000e+00  -1.313655e-06 4.171772e-07 0.000000e+00  -2.246030e-06 5.280559e-07 0.000000e+00  -3.370773e-06 6.188572e-07 0.000000e+00  -4.649244e-06 6.885642e-07 0.000000e+00  -6.041543e-06 7.373031e-07 0.000000e+00  -7.508329e-06 7.658468e-07 0.000000e+00  -9.011900e-06 7.753559e-07 0.000000e+00  -1.051689e-05 7.672271e-07 0.000000e+00  -1.199447e-05 7.433216e-07 0.000000e+00  -1.340359e-05 7.044099e-07 0.000000e+00  -1.472444e-05 6.528139e-07 0.000000e+00  -1.594487e-05 5.908041e-07 0.000000e+00  -1.703638e-05 5.195715e-07 0.000000e+00  -1.796985e-05 4.403930e-07 0.000000e+00  -1.874324e-05 3.554831e-07 0.000000e+00  -1.936137e-05 2.668988e-07 0.000000e+00  -1.980486e-05 1.757889e-07 0.000000e+00  -2.005434e-05 8.334125e-08 0.000000e+00  -2.012369e-05 -8.624471e-09 0.000000e+00  -2.003205e-05 -9.849951e-08 0.000000e+00  -1.976815e-05 -1.853651e-07 0.000000e+00  -1.932101e-05 -2.682975e-07 0.000000e+00  -1.871667e-05 -3.460322e-07 0.000000e+00  -1.798461e-05 -4.175374e-07 0.000000e+00  -1.711942e-05 -4.822332e-07 0.000000e+00  -1.611603e-05 -5.395536e-07 0.000000e+00  -1.500807e-05 -5.888529e-07 0.000000e+00  -1.383060e-05 -6.297158e-07 0.000000e+00  -1.258129e-05 -6.619344e-07 0.000000e+00  -1.125811e-05 -6.853179e-07 0.000000e+00  -9.897401e-06 -6.998215e-07 0.000000e+00  -8.535170e-06 -7.056087e-07 0.000000e+00  -7.169321e-06 -7.028099e-07 0.000000e+00  -5.798064e-06 -6.915631e-07 0.000000e+00  -4.456080e-06 -6.723405e-07 0.000000e+00  -3.176110e-06 -6.457866e-07 0.000000e+00  -1.953978e-06 -6.122853e-07 0.000000e+00  -7.859070e-07 -5.722087e-07 0.000000e+00  2.986756e-07 -5.264170e-07 0.000000e+00  1.273527e-06 -4.758971e-07 0.000000e+00  2.146429e-06 -4.211688e-07 0.000000e+00  2.924526e-06 -3.627161e-07 0.000000e+00  3.586101e-06 -3.016323e-07 0.000000e+00  4.113476e-06 -2.390890e-07 0.000000e+00  4.518587e-06 -1.756110e-07 0.000000e+00  4.812319e-06 -1.116631e-07 0.000000e+00  4.981883e-06 -4.841223e-08 0.000000e+00  5.018984e-06 1.294387e-08 0.000000e+00  4.939243e-06 7.200139e-08 0.000000e+00  4.756661e-06 1.284366e-07 0.000000e+00  4.467380e-06 1.811567e-07 0.000000e+00  4.072121e-06 2.290796e-07 0.000000e+00  3.588804e-06 2.720284e-07 0.000000e+00  3.033050e-06 3.099192e-07 0.000000e+00  2.408876e-06 3.418541e-07 0.000000e+00  1.724645e-06 3.669797e-07 0.000000e+00  9.984801e-07 3.854196e-07 0.000000e+00  2.454837e-07 3.973936e-07 0.000000e+00  -5.243190e-07 4.022832e-07 0.000000e+00  -1.297037e-06 3.995377e-07 0.000000e+00  -2.056856e-06 3.896141e-07 0.000000e+00  -2.791674e-06 3.730582e-07 0.000000e+00  -3.487820e-06 3.495716e-07 0.000000e+00  -4.128395e-06 3.189362e-07 0.000000e+00  -4.702491e-06 2.819304e-07 0.000000e+00  -5.203483e-06 2.394021e-07 0.000000e+00  -5.616555e-06 1.913681e-07 0.000000e+00  -5.924374e-06 1.379263e-07 0.000000e+00  -6.123264e-06 8.011915e-08 0.000000e+00  -6.214178e-06 1.902723e-08 0.000000e+00  -6.183450e-06 -4.506725e-08 0.000000e+00  -6.015581e-06 -1.118102e-07 0.000000e+00  -5.715822e-06 -1.799958e-07 0.000000e+00  -5.294108e-06 -2.484208e-07 0.000000e+00  -4.739662e-06 -3.166266e-07 0.000000e+00  -4.040470e-06 -3.841003e-07 0.000000e+00  -3.211474e-06 -4.496078e-07 0.000000e+00  -2.271995e-06 -5.119658e-07 0.000000e+00  -1.215069e-06 -5.706580e-07 0.000000e+00  -3.293710e-08 -6.251365e-07 0.000000e+00  1.250159e-06 -6.742971e-07 0.000000e+00  2.606307e-06 -7.171379e-07 0.000000e+00  4.038736e-06 -7.532198e-07 0.000000e+00  5.551200e-06 -7.820951e-07 0.000000e+00  7.111832e-06 -8.029544e-07 0.000000e+00  8.686205e-06 -8.151412e-07 0.000000e+00  1.027494e-05 -8.184259e-07 0.000000e+00  1.187909e-05 -8.125900e-07 0.000000e+00  1.346209e-05 -7.972712e-07 0.000000e+00  1.498629e-05 -7.723036e-07 0.000000e+00  1.645180e-05 -7.377775e-07 0.000000e+00  1.785918e-05 -6.938059e-07 0.000000e+00  1.917115e-05 -6.405908e-07 0.000000e+00  2.035114e-05 -5.785629e-07 0.000000e+00  2.140152e-05 -5.082003e-07 0.000000e+00  2.232522e-05 -4.300026e-07 0.000000e+00  2.308895e-05 -3.447993e-07 0.000000e+00  2.366208e-05 -2.536628e-07 0.000000e+00  2.405236e-05 -1.574674e-07 0.000000e+00  2.426807e-05 -5.709167e-08 0.000000e+00  2.428487e-05 4.601548e-08 0.000000e+00  2.408301e-05 1.501699e-07 0.000000e+00  2.367843e-05 2.541639e-07 0.000000e+00  2.308750e-05 3.568184e-07 0.000000e+00  2.229935e-05 4.561545e-07 0.000000e+00  2.130942e-05 5.499908e-07 0.000000e+00  2.014394e-05 6.369229e-07 0.000000e+00  1.882914e-05 7.156188e-07 0.000000e+00  1.737106e-05 7.837447e-07 0.000000e+00  1.578337e-05 8.388306e-07 0.000000e+00  1.410322e-05 8.794860e-07 0.000000e+00  1.236700e-05 9.044435e-07 0.000000e+00  1.059924e-05 9.113084e-07 0.000000e+00  8.832499e-06 8.977016e-07 0.000000e+00  7.113118e-06 8.626332e-07 0.000000e+00  5.485309e-06 8.053682e-07 0.000000e+00  3.989472e-06 7.243033e-07 0.000000e+00  2.671436e-06 6.185970e-07 0.000000e+00  1.576956e-06 4.898411e-07 0.000000e+00  7.433191e-07 3.418095e-07 0.000000e+00  1.991071e-07 1.825004e-07 0.000000e+00  -5.082145e-08 3.228077e-08 0.000000e+00  -6.052019e-08 -6.065934e-08 0.000000e+00  -1.369493e-11 -1.215128e-11 0.000000e+00  6.625010e-13 -2.656300e-12 0.000000e+00  -2.219265e-08 -5.430867e-08 0.000000e+00  -2.472299e-07 2.498525e-07 0.000000e+00  -8.286088e-07 6.991827e-07 0.000000e+00  -1.824046e-06 1.180622e-06 0.000000e+00  -3.235457e-06 1.636037e-06 0.000000e+00  -5.029767e-06 2.036245e-06 0.000000e+00  -7.154144e-06 2.367309e-06 0.000000e+00  -9.545571e-06 2.623533e-06 0.000000e+00  -1.213665e-05 2.803912e-06 0.000000e+00  -1.485930e-05 2.910253e-06 0.000000e+00  -1.764715e-05 2.946117e-06 0.000000e+00  -2.043705e-05 2.916204e-06 0.000000e+00  -2.317786e-05 2.827088e-06 0.000000e+00  -2.579279e-05 2.681368e-06 0.000000e+00  -2.824684e-05 2.487635e-06 0.000000e+00  -3.051908e-05 2.254324e-06 0.000000e+00  -3.255550e-05 1.985794e-06 0.000000e+00  -3.430059e-05 1.686801e-06 0.000000e+00  -3.575159e-05 1.365738e-06 0.000000e+00  -3.691843e-05 1.030373e-06 0.000000e+00  -3.776340e-05 6.850036e-07 0.000000e+00  -3.824859e-05 3.341438e-07 0.000000e+00  -3.840065e-05 -1.524236e-08 0.000000e+00  -3.825613e-05 -3.570385e-07 0.000000e+00  -3.779213e-05 -6.877771e-07 0.000000e+00  -3.698617e-05 -1.003909e-06 0.000000e+00  -3.588767e-05 -1.300556e-06 0.000000e+00  -3.455252e-05 -1.573784e-06 0.000000e+00  -3.296868e-05 -1.821390e-06 0.000000e+00  -3.112474e-05 -2.041167e-06 0.000000e+00  -2.908439e-05 -2.230595e-06 0.000000e+00  -2.691416e-05 -2.388086e-06 0.000000e+00  -2.460777e-05 -2.512841e-06 0.000000e+00  -2.215960e-05 -2.604076e-06 0.000000e+00  -1.963865e-05 -2.661572e-06 0.000000e+00  -1.711326e-05 -2.685953e-06 0.000000e+00  -1.457780e-05 -2.677703e-06 0.000000e+00  -1.202730e-05 -2.637291e-06 0.000000e+00  -9.527757e-06 -2.566486e-06 0.000000e+00  -7.141513e-06 -2.467757e-06 0.000000e+00  -4.859254e-06 -2.342550e-06 0.000000e+00  -2.672560e-06 -2.192229e-06 0.000000e+00  -6.376792e-07 -2.020063e-06 0.000000e+00  1.195192e-06 -1.829839e-06 0.000000e+00  2.841863e-06 -1.623515e-06 0.000000e+00  4.316760e-06 -1.402889e-06 0.000000e+00  5.578056e-06 -1.172137e-06 0.000000e+00  6.591632e-06 -9.357587e-07 0.000000e+00  7.380800e-06 -6.957278e-07 0.000000e+00  7.966678e-06 -4.537726e-07 0.000000e+00  8.324217e-06 -2.143673e-07 0.000000e+00  8.436969e-06 1.788255e-08 0.000000e+00  8.334858e-06 2.414719e-07 0.000000e+00  8.044523e-06 4.552067e-07 0.000000e+00  7.557762e-06 6.548820e-07 0.000000e+00  6.875170e-06 8.363328e-07 0.000000e+00  6.030680e-06 9.989262e-07 0.000000e+00  5.053652e-06 1.142380e-06 0.000000e+00  3.950808e-06 1.263225e-06 0.000000e+00  2.737253e-06 1.358169e-06 0.000000e+00  1.447009e-06 1.427735e-06 0.000000e+00  1.081607e-07 1.472795e-06 0.000000e+00  -1.261103e-06 1.490941e-06 0.000000e+00  -2.635090e-06 1.480040e-06 0.000000e+00  -3.984392e-06 1.441893e-06 0.000000e+00  -5.286830e-06 1.378614e-06 0.000000e+00  -6.517137e-06 1.289011e-06 0.000000e+00  -7.643735e-06 1.172227e-06 0.000000e+00  -8.646676e-06 1.031293e-06 0.000000e+00  -9.514290e-06 8.694707e-07 0.000000e+00  -1.021890e-05 6.867678e-07 0.000000e+00  -1.072784e-05 4.835397e-07 0.000000e+00  -1.103495e-05 2.638238e-07 0.000000e+00  -1.114297e-05 3.176270e-08 0.000000e+00  -1.102607e-05 -2.116253e-07 0.000000e+00  -1.065475e-05 -4.650033e-07 0.000000e+00  -1.003976e-05 -7.237138e-07 0.000000e+00  -9.200804e-06 -9.831575e-07 0.000000e+00  -8.117176e-06 -1.241646e-06 0.000000e+00  -6.765606e-06 -1.497233e-06 0.000000e+00  -5.175112e-06 -1.745162e-06 0.000000e+00  -3.383079e-06 -1.980924e-06 0.000000e+00  -1.375611e-06 -2.202612e-06 0.000000e+00  8.628764e-07 -2.408146e-06 0.000000e+00  3.285894e-06 -2.593277e-06 0.000000e+00  5.839961e-06 -2.754204e-06 0.000000e+00  8.532294e-06 -2.889317e-06 0.000000e+00  1.137126e-05 -2.996917e-06 0.000000e+00  1.429610e-05 -3.073895e-06 0.000000e+00  1.724122e-05 -3.117784e-06 0.000000e+00  2.020924e-05 -3.127772e-06 0.000000e+00  2.320372e-05 -3.103035e-06 0.000000e+00  2.615519e-05 -3.042184e-06 0.000000e+00  2.899215e-05 -2.944638e-06 0.000000e+00  3.171652e-05 -2.810801e-06 0.000000e+00  3.433115e-05 -2.641108e-06 0.000000e+00  3.676535e-05 -2.436339e-06 0.000000e+00  3.894981e-05 -2.198196e-06 0.000000e+00  4.089087e-05 -1.928549e-06 0.000000e+00  4.259590e-05 -1.629302e-06 0.000000e+00  4.400185e-05 -1.303635e-06 0.000000e+00  4.505068e-05 -9.556970e-07 0.000000e+00  4.575884e-05 -5.888459e-07 0.000000e+00  4.614375e-05 -2.064171e-07 0.000000e+00  4.615914e-05 1.860493e-07 0.000000e+00  4.576744e-05 5.820947e-07 0.000000e+00  4.500031e-05 9.771280e-07 0.000000e+00  4.389010e-05 1.366696e-06 0.000000e+00  4.241565e-05 1.743265e-06 0.000000e+00  4.056770e-05 2.098540e-06 0.000000e+00  3.839674e-05 2.427252e-06 0.000000e+00  3.595297e-05 2.724432e-06 0.000000e+00  3.324648e-05 2.981282e-06 0.000000e+00  3.030143e-05 3.188554e-06 0.000000e+00  2.718766e-05 3.341208e-06 0.000000e+00  2.397313e-05 3.434706e-06 0.000000e+00  2.070098e-05 3.460301e-06 0.000000e+00  1.742869e-05 3.409519e-06 0.000000e+00  1.424058e-05 3.279366e-06 0.000000e+00  1.121583e-05 3.067984e-06 0.000000e+00  8.422764e-06 2.770602e-06 0.000000e+00  5.937650e-06 2.385900e-06 0.000000e+00  3.836567e-06 1.922132e-06 0.000000e+00  2.177657e-06 1.395607e-06 0.000000e+00  1.000143e-06 8.365087e-07 0.000000e+00  3.081298e-07 3.108945e-07 0.000000e+00  3.176601e-08 -5.060485e-08 0.000000e+00  -1.349448e-11 -1.609151e-11 0.000000e+00  4.189168e-12 -3.976169e-12 0.000000e+00  -1.496192e-07 1.479370e-07 0.000000e+00  -6.946689e-07 8.309716e-07 0.000000e+00  -1.742130e-06 1.745334e-06 0.000000e+00  -3.332333e-06 2.713479e-06 0.000000e+00  -5.458221e-06 3.633134e-06 0.000000e+00  -8.076921e-06 4.447112e-06 0.000000e+00  -1.112252e-05 5.124999e-06 0.000000e+00  -1.451530e-05 5.652490e-06 0.000000e+00  -1.816848e-05 6.025217e-06 0.000000e+00  -2.199301e-05 6.245119e-06 0.000000e+00  -2.590088e-05 6.318269e-06 0.000000e+00  -2.980754e-05 6.253513e-06 0.000000e+00  -3.364505e-05 6.063995e-06 0.000000e+00  -3.730552e-05 5.754514e-06 0.000000e+00  -4.074305e-05 5.342938e-06 0.000000e+00  -4.393102e-05 4.846960e-06 0.000000e+00  -4.679272e-05 4.275550e-06 0.000000e+00  -4.924892e-05 3.638608e-06 0.000000e+00  -5.129748e-05 2.953985e-06 0.000000e+00  -5.295400e-05 2.238254e-06 0.000000e+00  -5.416358e-05 1.500479e-06 0.000000e+00  -5.487072e-05 7.502330e-07 0.000000e+00  -5.511412e-05 2.468272e-09 0.000000e+00  -5.494641e-05 -7.296746e-07 0.000000e+00  -5.433296e-05 -1.438805e-06 0.000000e+00  -5.323955e-05 -2.117317e-06 0.000000e+00  -5.173683e-05 -2.754681e-06 0.000000e+00  -4.990454e-05 -3.342397e-06 0.000000e+00  -4.772315e-05 -3.875731e-06 0.000000e+00  -4.517392e-05 -4.349907e-06 0.000000e+00  -4.234766e-05 -4.759438e-06 0.000000e+00  -3.933916e-05 -5.100869e-06 0.000000e+00  -3.613704e-05 -5.372443e-06 0.000000e+00  -3.273082e-05 -5.572405e-06 0.000000e+00  -2.921894e-05 -5.700227e-06 0.000000e+00  -2.569889e-05 -5.757225e-06 0.000000e+00  -2.216034e-05 -5.744376e-06 0.000000e+00  -1.859404e-05 -5.662597e-06 0.000000e+00  -1.509435e-05 -5.515663e-06 0.000000e+00  -1.175040e-05 -5.308879e-06 0.000000e+00  -8.546988e-06 -5.045275e-06 0.000000e+00  -5.470351e-06 -4.727688e-06 0.000000e+00  -2.601226e-06 -4.363144e-06 0.000000e+00  -1.169567e-08 -3.959811e-06 0.000000e+00  2.322238e-06 -3.521814e-06 0.000000e+00  4.422369e-06 -3.052914e-06 0.000000e+00  6.228244e-06 -2.562122e-06 0.000000e+00  7.690453e-06 -2.059165e-06 0.000000e+00  8.843159e-06 -1.548194e-06 0.000000e+00  9.717137e-06 -1.032819e-06 0.000000e+00  1.027562e-05 -5.227168e-07 0.000000e+00  1.049419e-05 -2.786296e-08 0.000000e+00  1.041591e-05 4.486033e-07 0.000000e+00  1.007888e-05 9.042223e-07 0.000000e+00  9.470189e-06 1.329877e-06 0.000000e+00  8.589625e-06 1.716525e-06 0.000000e+00  7.485466e-06 2.062908e-06 0.000000e+00  6.199192e-06 2.368529e-06 0.000000e+00  4.739138e-06 2.625838e-06 0.000000e+00  3.125777e-06 2.827664e-06 0.000000e+00  1.407095e-06 2.975236e-06 0.000000e+00  -3.776554e-07 3.070543e-06 0.000000e+00  -2.203701e-06 3.108307e-06 0.000000e+00  -4.035354e-06 3.083848e-06 0.000000e+00  -5.831523e-06 3.001145e-06 0.000000e+00  -7.561665e-06 2.864854e-06 0.000000e+00  -9.190703e-06 2.672310e-06 0.000000e+00  -1.067431e-05 2.421575e-06 0.000000e+00  -1.198508e-05 2.119273e-06 0.000000e+00  -1.310762e-05 1.772518e-06 0.000000e+00  -1.400306e-05 1.381226e-06 0.000000e+00  -1.462519e-05 9.460643e-07 0.000000e+00  -1.496630e-05 4.758158e-07 0.000000e+00  -1.503156e-05 -2.052664e-08 0.000000e+00  -1.478434e-05 -5.408770e-07 0.000000e+00  -1.418242e-05 -1.082453e-06 0.000000e+00  -1.324217e-05 -1.635155e-06 0.000000e+00  -1.199288e-05 -2.189031e-06 0.000000e+00  -1.040461e-05 -2.740553e-06 0.000000e+00  -8.443552e-06 -3.285629e-06 0.000000e+00  -6.151952e-06 -3.813969e-06 0.000000e+00  -3.584064e-06 -4.315839e-06 0.000000e+00  -7.191209e-07 -4.787250e-06 0.000000e+00  2.466307e-06 -5.223813e-06 0.000000e+00  5.905300e-06 -5.616360e-06 0.000000e+00  9.520941e-06 -5.956714e-06 0.000000e+00  1.332504e-05 -6.241519e-06 0.000000e+00  1.733127e-05 -6.467203e-06 0.000000e+00  2.145264e-05 -6.627081e-06 0.000000e+00  2.559526e-05 -6.715876e-06 0.000000e+00  2.976489e-05 -6.731940e-06 0.000000e+00  3.396878e-05 -6.673573e-06 0.000000e+00  3.810776e-05 -6.537816e-06 0.000000e+00  4.207981e-05 -6.323476e-06 0.000000e+00  4.589002e-05 -6.031503e-06 0.000000e+00  4.954489e-05 -5.662888e-06 0.000000e+00  5.294370e-05 -5.219354e-06 0.00000