<?xml version="1.0"?>
<VTKFile type="UnstructuredGrid"  version="0.1"  >
<UnstructuredGrid>
<Piece  NumberOfPoints="16641" NumberOfCells="32768">
<Points>
<DataArray  type="Float32"  NumberOfComponents="3"  format="ascii">0 0 0  0.0078125 0 0  0.015625 0 0  0.0234375 0 0  0.03125 0 0  0.0390625 0 0  0.046875 0 0  0.0546875 0 0  0.0625 0 0  0.0703125 0 0  0.078125 0 0  0.0859375 0 0  0.09375 0 0  0.101562 0 0  0.109375 0 0  0.117188 0 0  0.125 0 0  0.132812 0 0  0.140625 0 0  0.148438 0 0  0.15625 0 0  0.164062 0 0  0.171875 0 0  0.179688 0 0  0.1875 0 0  0.195312 0 0  0.203125 0 0  0.210938 0 0  0.21875 0 0  0.226562 0 0  0.234375 0 0  0.242188 0 0  0.25 0 0  0.257812 0 0  0.265625 0 0  0.273438 0 0  0.28125 0 0  0.289062 0 0  0.296875 0 0  0.304688 0 0  0.3125 0 0  0.320312 0 0  0.328125 0 0  0.335938 0 0  0.34375 0 0  0.351562 0 0  0.359375 0 0  0.367188 0 0  0.375 0 0  0.382812 0 0  0.390625 0 0  0.398438 0 0  0.40625 0 0  0.414062 0 0  0.421875 0 0  0.429688 0 0  0.4375 0 0  0.445312 0 0  0.453125 0 0  0.460938 0 0  0.46875 0 0  0.476562 0 0  0.484375 0 0  0.492188 0 0  0.5 0 0  0.507812 0 0  0.515625 0 0  0.523438 0 0  0.53125 0 0  0.539062 0 0  0.546875 0 0  0.554688 0 0  0.5625 0 0  0.570312 0 0  0.578125 0 0  0.585938 0 0  0.59375 0 0  0.601562 0 0  0.609375 0 0  0.617188 0 0  0.625 0 0  0.632812 0 0  0.640625 0 0  0.648438 0 0  0.65625 0 0  0.664062 0 0  0.671875 0 0  0.679688 0 0  0.6875 0 0  0.695312 0 0  0.703125 0 0  0.710938 0 0  0.71875 0 0  0.726562 0 0  0.734375 0 0  0.742188 0 0  0.75 0 0  0.757812 0 0  0.765625 0 0  0.773438 0 0  0.78125 0 0  0.789062 0 0  0.796875 0 0  0.804688 0 0  0.8125 0 0  0.820312 0 0  0.828125 0 0  0.835938 0 0  0.84375 0 0  0.851562 0 0  0.859375 0 0  0.867188 0 0  0.875 0 0  0.882812 0 0  0.890625 0 0  0.898438 0 0  0.90625 0 0  0.914062 0 0  0.921875 0 0  0.929688 0 0  0.9375 0 0  0.945312 0 0  0.953125 0 0  0.960938 0 0  0.96875 0 0  0.976562 0 0  0.984375 0 0  0.992188 0 0  1 0 0  0 0.0078125 0  0.0078125 0.0078125 0  0.015625 0.0078125 0  0.0234375 0.0078125 0  0.03125 0.0078125 0  0.0390625 0.0078125 0  0.046875 0.0078125 0  0.0546875 0.0078125 0  0.0625 0.0078125 0  0.0703125 0.0078125 0  0.078125 0.0078125 0  0.0859375 0.0078125 0  0.09375 0.0078125 0  0.101562 0.0078125 0  0.109375 0.0078125 0  0.117188 0.0078125 0  0.125 0.0078125 0  0.132812 0.0078125 0  0.140625 0.0078125 0  0.148438 0.0078125 0  0.15625 0.0078125 0  0.164062 0.0078125 0  0.171875 0.0078125 0  0.179688 0.0078125 0  0.1875 0.0078125 0  0.195312 0.0078125 0  0.203125 0.0078125 0  0.210938 0.0078125 0  0.21875 0.0078125 0  0.226562 0.0078125 0  0.234375 0.0078125 0  0.242188 0.0078125 0  0.25 0.0078125 0  0.257812 0.0078125 0  0.265625 0.0078125 0  0.273438 0.0078125 0  0.28125 0.0078125 0  0.289062 0.0078125 0  0.296875 0.0078125 0  0.304688 0.0078125 0  0.3125 0.0078125 0  0.320312 0.0078125 0  0.328125 0.0078125 0  0.335938 0.0078125 0  0.34375 0.0078125 0  0.351562 0.0078125 0  0.359375 0.0078125 0  0.367188 0.0078125 0  0.375 0.0078125 0  0.382812 0.0078125 0  0.390625 0.0078125 0  0.398438 0.0078125 0  0.40625 0.0078125 0  0.414062 0.0078125 0  0.421875 0.0078125 0  0.429688 0.0078125 0  0.4375 0.0078125 0  0.445312 0.0078125 0  0.453125 0.0078125 0  0.460938 0.0078125 0  0.46875 0.0078125 0  0.476562 0.0078125 0  0.484375 0.0078125 0  0.492188 0.0078125 0  0.5 0.0078125 0  0.507812 0.0078125 0  0.515625 0.0078125 0  0.523438 0.0078125 0  0.53125 0.0078125 0  0.539062 0.0078125 0  0.546875 0.0078125 0  0.554688 0.0078125 0  0.5625 0.0078125 0  0.570312 0.0078125 0  0.578125 0.0078125 0  0.585938 0.0078125 0  0.59375 0.0078125 0  0.601562 0.0078125 0  0.609375 0.0078125 0  0.617188 0.0078125 0  0.625 0.0078125 0  0.632812 0.0078125 0  0.640625 0.0078125 0  0.648438 0.0078125 0  0.65625 0.0078125 0  0.664062 0.0078125 0  0.671875 0.0078125 0  0.679688 0.0078125 0  0.6875 0.0078125 0  0.695312 0.0078125 0  0.703125 0.0078125 0  0.710938 0.0078125 0  0.71875 0.0078125 0  0.726562 0.0078125 0  0.734375 0.0078125 0  0.742188 0.0078125 0  0.75 0.0078125 0  0.757812 0.0078125 0  0.765625 0.0078125 0  0.773438 0.0078125 0  0.78125 0.0078125 0  0.789062 0.0078125 0  0.796875 0.0078125 0  0.804688 0.0078125 0  0.8125 0.0078125 0  0.820312 0.0078125 0  0.828125 0.0078125 0  0.835938 0.0078125 0  0.84375 0.0078125 0  0.851562 0.0078125 0  0.859375 0.0078125 0  0.867188 0.0078125 0  0.875 0.0078125 0  0.882812 0.0078125 0  0.890625 0.0078125 0  0.898438 0.0078125 0  0.90625 0.0078125 0  0.914062 0.0078125 0  0.921875 0.0078125 0  0.929688 0.0078125 0  0.9375 0.0078125 0  0.945312 0.0078125 0  0.953125 0.0078125 0  0.960938 0.0078125 0  0.96875 0.0078125 0  0.976562 0.0078125 0  0.984375 0.0078125 0  0.992188 0.0078125 0  1 0.0078125 0  0 0.015625 0  0.0078125 0.015625 0  0.015625 0.015625 0  0.0234375 0.015625 0  0.03125 0.015625 0  0.0390625 0.015625 0  0.046875 0.015625 0  0.0546875 0.015625 0  0.0625 0.015625 0  0.0703125 0.015625 0  0.078125 0.015625 0  0.0859375 0.015625 0  0.09375 0.015625 0  0.101562 0.015625 0  0.109375 0.015625 0  0.117188 0.015625 0  0.125 0.015625 0  0.132812 0.015625 0  0.140625 0.015625 0  0.148438 0.015625 0  0.15625 0.015625 0  0.164062 0.015625 0  0.171875 0.015625 0  0.179688 0.015625 0  0.1875 0.015625 0  0.195312 0.015625 0  0.203125 0.015625 0  0.210938 0.015625 0  0.21875 0.015625 0  0.226562 0.015625 0  0.234375 0.015625 0  0.242188 0.015625 0  0.25 0.015625 0  0.257812 0.015625 0  0.265625 0.015625 0  0.273438 0.015625 0  0.28125 0.015625 0  0.289062 0.015625 0  0.296875 0.015625 0  0.304688 0.015625 0  0.3125 0.015625 0  0.320312 0.015625 0  0.328125 0.015625 0  0.335938 0.015625 0  0.34375 0.015625 0  0.351562 0.015625 0  0.359375 0.015625 0  0.367188 0.015625 0  0.375 0.015625 0  0.382812 0.015625 0  0.390625 0.015625 0  0.398438 0.015625 0  0.40625 0.015625 0  0.414062 0.015625 0  0.421875 0.015625 0  0.429688 0.015625 0  0.4375 0.015625 0  0.445312 0.015625 0  0.453125 0.015625 0  0.460938 0.015625 0  0.46875 0.015625 0  0.476562 0.015625 0  0.484375 0.015625 0  0.492188 0.015625 0  0.5 0.015625 0  0.507812 0.015625 0  0.515625 0.015625 0  0.523438 0.015625 0  0.53125 0.015625 0  0.539062 0.015625 0  0.546875 0.015625 0  0.554688 0.015625 0  0.5625 0.015625 0  0.570312 0.015625 0  0.578125 0.015625 0  0.585938 0.015625 0  0.59375 0.015625 0  0.601562 0.015625 0  0.609375 0.015625 0  0.617188 0.015625 0  0.625 0.015625 0  0.632812 0.015625 0  0.640625 0.015625 0  0.648438 0.015625 0  0.65625 0.015625 0  0.664062 0.015625 0  0.671875 0.015625 0  0.679688 0.015625 0  0.6875 0.015625 0  0.695312 0.015625 0  0.703125 0.015625 0  0.710938 0.015625 0  0.71875 0.015625 0  0.726562 0.015625 0  0.734375 0.015625 0  0.742188 0.015625 0  0.75 0.015625 0  0.757812 0.015625 0  0.765625 0.015625 0  0.773438 0.015625 0  0.78125 0.015625 0  0.789062 0.015625 0  0.796875 0.015625 0  0.804688 0.015625 0  0.8125 0.015625 0  0.820312 0.015625 0  0.828125 0.015625 0  0.835938 0.015625 0  0.84375 0.015625 0  0.851562 0.015625 0  0.859375 0.015625 0  0.867188 0.015625 0  0.875 0.015625 0  0.882812 0.015625 0  0.890625 0.015625 0  0.898438 0.015625 0  0.90625 0.015625 0  0.914062 0.015625 0  0.921875 0.015625 0  0.929688 0.015625 0  0.9375 0.015625 0  0.945312 0.015625 0  0.953125 0.015625 0  0.960938 0.015625 0  0.96875 0.015625 0  0.976562 0.015625 0  0.984375 0.015625 0  0.992188 0.015625 0  1 0.015625 0  0 0.0234375 0  0.0078125 0.0234375 0  0.015625 0.0234375 0  0.0234375 0.0234375 0  0.03125 0.0234375 0  0.0390625 0.0234375 0  0.046875 0.0234375 0  0.0546875 0.0234375 0  0.0625 0.0234375 0  0.0703125 0.0234375 0  0.078125 0.0234375 0  0.0859375 0.0234375 0  0.09375 0.0234375 0  0.101562 0.0234375 0  0.109375 0.0234375 0  0.117188 0.0234375 0  0.125 0.0234375 0  0.132812 0.0234375 0  0.140625 0.0234375 0  0.148438 0.0234375 0  0.15625 0.0234375 0  0.164062 0.0234375 0  0.171875 0.0234375 0  0.179688 0.0234375 0  0.1875 0.0234375 0  0.195312 0.0234375 0  0.203125 0.0234375 0  0.210938 0.0234375 0  0.21875 0.0234375 0  0.226562 0.0234375 0  0.234375 0.0234375 0  0.242188 0.0234375 0  0.25 0.0234375 0  0.257812 0.0234375 0  0.265625 0.0234375 0  0.273438 0.0234375 0  0.28125 0.0234375 0  0.289062 0.0234375 0  0.296875 0.0234375 0  0.304688 0.0234375 0  0.3125 0.0234375 0  0.320312 0.0234375 0  0.328125 0.0234375 0  0.335938 0.0234375 0  0.34375 0.0234375 0  0.351562 0.0234375 0  0.359375 0.0234375 0  0.367188 0.0234375 0  0.375 0.0234375 0  0.382812 0.0234375 0  0.390625 0.0234375 0  0.398438 0.0234375 0  0.40625 0.0234375 0  0.414062 0.0234375 0  0.421875 0.0234375 0  0.429688 0.0234375 0  0.4375 0.0234375 0  0.445312 0.0234375 0  0.453125 0.0234375 0  0.460938 0.0234375 0  0.46875 0.0234375 0  0.476562 0.0234375 0  0.484375 0.0234375 0  0.492188 0.0234375 0  0.5 0.0234375 0  0.507812 0.0234375 0  0.515625 0.0234375 0  0.523438 0.0234375 0  0.53125 0.0234375 0  0.539062 0.0234375 0  0.546875 0.0234375 0  0.554688 0.0234375 0  0.5625 0.0234375 0  0.570312 0.0234375 0  0.578125 0.0234375 0  0.585938 0.0234375 0  0.59375 0.0234375 0  0.601562 0.0234375 0  0.609375 0.0234375 0  0.617188 0.0234375 0  0.625 0.0234375 0  0.632812 0.0234375 0  0.640625 0.0234375 0  0.648438 0.0234375 0  0.65625 0.0234375 0  0.664062 0.0234375 0  0.671875 0.0234375 0  0.679688 0.0234375 0  0.6875 0.0234375 0  0.695312 0.0234375 0  0.703125 0.0234375 0  0.710938 0.0234375 0  0.71875 0.0234375 0  0.726562 0.0234375 0  0.734375 0.0234375 0  0.742188 0.0234375 0  0.75 0.0234375 0  0.757812 0.0234375 0  0.765625 0.0234375 0  0.773438 0.0234375 0  0.78125 0.0234375 0  0.789062 0.0234375 0  0.796875 0.0234375 0  0.804688 0.0234375 0  0.8125 0.0234375 0  0.820312 0.0234375 0  0.828125 0.0234375 0  0.835938 0.0234375 0  0.84375 0.0234375 0  0.851562 0.0234375 0  0.859375 0.0234375 0  0.867188 0.0234375 0  0.875 0.0234375 0  0.882812 0.0234375 0  0.890625 0.0234375 0  0.898438 0.0234375 0  0.90625 0.0234375 0  0.914062 0.0234375 0  0.921875 0.0234375 0  0.929688 0.0234375 0  0.9375 0.0234375 0  0.945312 0.0234
[...]
<PointData  Vectors="u"> 
<DataArray  type="Float32"  Name="u"  NumberOfComponents="3" format="ascii">2.972346e-12 1.167534e-12 0.000000e+00  -1.218679e-12 1.662711e-12 0.000000e+00  2.747253e-12 -5.999951e-12 0.000000e+00  5.319603e-12 -1.365525e-11 0.000000e+00  2.144175e-11 -2.578039e-11 0.000000e+00  5.233078e-11 -3.925528e-11 0.000000e+00  9.951453e-11 -5.252805e-11 0.000000e+00  1.621542e-10 -6.455713e-11 0.000000e+00  2.383688e-10 -7.470696e-11 0.000000e+00  3.257724e-10 -8.267302e-11 0.000000e+00  4.217626e-10 -8.835077e-11 0.000000e+00  5.236703e-10 -9.175138e-11 0.000000e+00  6.290059e-10 -9.296743e-11 0.000000e+00  7.350554e-10 -9.210524e-11 0.000000e+00  8.397114e-10 -8.935003e-11 0.000000e+00  9.407907e-10 -8.487304e-11 0.000000e+00  1.036264e-09 -7.885831e-11 0.000000e+00  1.124569e-09 -7.151768e-11 0.000000e+00  1.204359e-09 -6.306089e-11 0.000000e+00  1.274234e-09 -5.368183e-11 0.000000e+00  1.333077e-09 -4.358029e-11 0.000000e+00  1.380334e-09 -3.296412e-11 0.000000e+00  1.415582e-09 -2.202392e-11 0.000000e+00  1.438255e-09 -1.093544e-11 0.000000e+00  1.448128e-09 1.222950e-13 0.000000e+00  1.445544e-09 1.098083e-11 0.000000e+00  1.430846e-09 2.149851e-11 0.000000e+00  1.404174e-09 3.154084e-11 0.000000e+00  1.366054e-09 4.097116e-11 0.000000e+00  1.317499e-09 4.967897e-11 0.000000e+00  1.259363e-09 5.758494e-11 0.000000e+00  1.192288e-09 6.460776e-11 0.000000e+00  1.117329e-09 7.066485e-11 0.000000e+00  1.035881e-09 7.570985e-11 0.000000e+00  9.490241e-10 7.972682e-11 0.000000e+00  8.576603e-10 8.269015e-11 0.000000e+00  7.631156e-10 8.457426e-11 0.000000e+00  6.668728e-10 8.539302e-11 0.000000e+00  5.699688e-10 8.518527e-11 0.000000e+00  4.733266e-10 8.397573e-11 0.000000e+00  3.782861e-10 8.179116e-11 0.000000e+00  2.861599e-10 7.869400e-11 0.000000e+00  1.977265e-10 7.476256e-11 0.000000e+00  1.137256e-10 7.006066e-11 0.000000e+00  3.528722e-11 6.465661e-11 0.000000e+00  -3.664014e-11 5.864479e-11 0.000000e+00  -1.016743e-10 5.212428e-11 0.000000e+00  -1.594039e-10 4.518290e-11 0.000000e+00  -2.090761e-10 3.791563e-11 0.000000e+00  -2.502188e-10 3.042991e-11 0.000000e+00  -2.828969e-10 2.282639e-11 0.000000e+00  -3.071013e-10 1.520022e-11 0.000000e+00  -3.225511e-10 7.656076e-12 0.000000e+00  -3.292761e-10 2.959774e-13 0.000000e+00  -3.277562e-10 -6.795057e-12 0.000000e+00  -3.183840e-10 -1.353072e-11 0.000000e+00  -3.013661e-10 -1.981373e-11 0.000000e+00  -2.771798e-10 -2.556338e-11 0.000000e+00  -2.466177e-10 -3.072364e-11 0.000000e+00  -2.104053e-10 -3.523093e-11 0.000000e+00  -1.691760e-10 -3.901054e-11 0.000000e+00  -1.237349e-10 -4.201486e-11 0.000000e+00  -7.503617e-11 -4.422500e-11 0.000000e+00  -2.401290e-11 -4.561034e-11 0.000000e+00  2.839926e-11 -4.613037e-11 0.000000e+00  8.123168e-11 -4.577708e-11 0.000000e+00  1.335438e-10 -4.457113e-11 0.000000e+00  1.843568e-10 -4.252032e-11 0.000000e+00  2.326040e-10 -3.962512e-11 0.000000e+00  2.773360e-10 -3.591774e-11 0.000000e+00  3.177991e-10 -3.145515e-11 0.000000e+00  3.531451e-10 -2.628361e-11 0.000000e+00  3.823691e-10 -2.044545e-11 0.000000e+00  4.047160e-10 -1.400802e-11 0.000000e+00  4.197656e-10 -7.056049e-12 0.000000e+00  4.269657e-10 3.312443e-13 0.000000e+00  4.255602e-10 8.074951e-12 0.000000e+00  4.151306e-10 1.608306e-11 0.000000e+00  3.956881e-10 2.425572e-11 0.000000e+00  3.671071e-10 3.249156e-11 0.000000e+00  3.290322e-10 4.068642e-11 0.000000e+00  2.814683e-10 4.873825e-11 0.000000e+00  2.248929e-10 5.654769e-11 0.000000e+00  1.596787e-10 6.400623e-11 0.000000e+00  8.596235e-11 7.100091e-11 0.000000e+00  4.187657e-12 7.743699e-11 0.000000e+00  -8.474060e-11 8.323226e-11 0.000000e+00  -1.799537e-10 8.828903e-11 0.000000e+00  -2.808145e-10 9.250536e-11 0.000000e+00  -3.865043e-10 9.581185e-11 0.000000e+00  -4.958040e-10 9.815937e-11 0.000000e+00  -6.074363e-10 9.947975e-11 0.000000e+00  -7.203483e-10 9.970291e-11 0.000000e+00  -8.334894e-10 9.880118e-11 0.000000e+00  -9.455055e-10 9.677164e-11 0.000000e+00  -1.054882e-09 9.359265e-11 0.000000e+00  -1.160328e-09 8.924482e-11 0.000000e+00  -1.260770e-09 8.375457e-11 0.000000e+00  -1.354950e-09 7.717345e-11 0.000000e+00  -1.441357e-09 6.953898e-11 0.000000e+00  -1.518718e-09 6.089602e-11 0.000000e+00  -1.586194e-09 5.133097e-11 0.000000e+00  -1.642871e-09 4.095172e-11 0.000000e+00  -1.687532e-09 2.986048e-11 0.000000e+00  -1.719230e-09 1.817145e-11 0.000000e+00  -1.737619e-09 6.028638e-12 0.000000e+00  -1.742383e-09 -6.409551e-12 0.000000e+00  -1.732895e-09 -1.897992e-11 0.000000e+00  -1.708839e-09 -3.150501e-11 0.000000e+00  -1.670603e-09 -4.379526e-11 0.000000e+00  -1.618674e-09 -5.565570e-11 0.000000e+00  -1.553277e-09 -6.687703e-11 0.000000e+00  -1.474987e-09 -7.723798e-11 0.000000e+00  -1.385086e-09 -8.652622e-11 0.000000e+00  -1.284994e-09 -9.453372e-11 0.000000e+00  -1.175964e-09 -1.010339e-10 0.000000e+00  -1.059601e-09 -1.057988e-10 0.000000e+00  -9.381219e-10 -1.086323e-10 0.000000e+00  -8.138878e-10 -1.093555e-10 0.000000e+00  -6.891854e-10 -1.077828e-10 0.000000e+00  -5.665859e-10 -1.037578e-10 0.000000e+00  -4.490634e-10 -9.719596e-11 0.000000e+00  -3.396720e-10 -8.808682e-11 0.000000e+00  -2.413785e-10 -7.647603e-11 0.000000e+00  -1.571910e-10 -6.251658e-11 0.000000e+00  -9.025022e-11 -4.682457e-11 0.000000e+00  -4.319921e-11 -3.042803e-11 0.000000e+00  -1.795216e-11 -1.801954e-11 0.000000e+00  -1.334730e-11 -1.795803e-11 0.000000e+00  -4.699338e-12 1.965549e-12 0.000000e+00  5.564005e-08 -5.544809e-08 0.000000e+00  5.354614e-08 2.375288e-08 0.000000e+00  -1.518385e-07 1.525931e-07 0.000000e+00  -6.080176e-07 2.894969e-07 0.000000e+00  -1.314006e-06 4.172538e-07 0.000000e+00  -2.246536e-06 5.281403e-07 0.000000e+00  -3.371443e-06 6.189448e-07 0.000000e+00  -4.650082e-06 6.886509e-07 0.000000e+00  -6.042543e-06 7.373852e-07 0.000000e+00  -7.509478e-06 7.659210e-07 0.000000e+00  -9.013181e-06 7.754193e-07 0.000000e+00  -1.051828e-05 7.672774e-07 0.000000e+00  -1.199594e-05 7.433570e-07 0.000000e+00  -1.340511e-05 7.044288e-07 0.000000e+00  -1.472597e-05 6.528154e-07 0.000000e+00  -1.594639e-05 5.907877e-07 0.000000e+00  -1.703785e-05 5.195374e-07 0.000000e+00  -1.797123e-05 4.403417e-07 0.000000e+00  -1.874451e-05 3.554157e-07 0.000000e+00  -1.936249e-05 2.668170e-07 0.000000e+00  -1.980581e-05 1.756946e-07 0.000000e+00  -2.005509e-05 8.323704e-08 0.000000e+00  -2.012423e-05 -8.735870e-09 0.000000e+00  -2.003237e-05 -9.861506e-08 0.000000e+00  -1.976824e-05 -1.854816e-07 0.000000e+00  -1.932087e-05 -2.684118e-07 0.000000e+00  -1.871632e-05 -3.461409e-07 0.000000e+00  -1.798406e-05 -4.176375e-07 0.000000e+00  -1.711868e-05 -4.823218e-07 0.000000e+00  -1.611514e-05 -5.396282e-07 0.000000e+00  -1.500704e-05 -5.889112e-07 0.000000e+00  -1.382948e-05 -6.297561e-07 0.000000e+00  -1.258011e-05 -6.619552e-07 0.000000e+00  -1.125691e-05 -6.853185e-07 0.000000e+00  -9.896219e-06 -6.998013e-07 0.000000e+00  -8.534049e-06 -7.055677e-07 0.000000e+00  -7.168301e-06 -7.027486e-07 0.000000e+00  -5.797184e-06 -6.914821e-07 0.000000e+00  -4.455379e-06 -6.722408e-07 0.000000e+00  -3.175623e-06 -6.456695e-07 0.000000e+00  -1.953739e-06 -6.121522e-07 0.000000e+00  -7.859446e-07 -5.720613e-07 0.000000e+00  2.983339e-07 -5.262568e-07 0.000000e+00  1.272857e-06 -4.757258e-07 0.000000e+00  2.145411e-06 -4.209881e-07 0.000000e+00  2.923143e-06 -3.625276e-07 0.000000e+00  3.584338e-06 -3.014376e-07 0.000000e+00  4.111322e-06 -2.388897e-07 0.000000e+00  4.516034e-06 -1.754083e-07 0.000000e+00  4.809362e-06 -1.114585e-07 0.000000e+00  4.978519e-06 -4.820679e-08 0.000000e+00  5.015211e-06 1.314902e-08 0.000000e+00  4.935063e-06 7.220529e-08 0.000000e+00  4.752077e-06 1.286384e-07 0.000000e+00  4.462397e-06 1.813555e-07 0.000000e+00  4.066745e-06 2.292749e-07 0.000000e+00  3.583043e-06 2.722194e-07 0.000000e+00  3.026913e-06 3.101055e-07 0.000000e+00  2.402372e-06 3.420351e-07 0.000000e+00  1.717784e-06 3.671551e-07 0.000000e+00  9.912740e-07 3.855890e-07 0.000000e+00  2.379445e-07 3.975567e-07 0.000000e+00  -5.321787e-07 4.024397e-07 0.000000e+00  -1.305204e-06 3.996874e-07 0.000000e+00  -2.065317e-06 3.897569e-07 0.000000e+00  -2.800415e-06 3.731939e-07 0.000000e+00  -3.496827e-06 3.497001e-07 0.000000e+00  -4.137653e-06 3.190574e-07 0.000000e+00  -4.711986e-06 2.820442e-07 0.000000e+00  -5.213200e-06 2.395086e-07 0.000000e+00  -5.626480e-06 1.914672e-07 0.000000e+00  -5.934492e-06 1.380181e-07 0.000000e+00  -6.133560e-06 8.020341e-08 0.000000e+00  -6.224637e-06 1.910397e-08 0.000000e+00  -6.194057e-06 -4.499816e-08 0.000000e+00  -6.026320e-06 -1.117489e-07 0.000000e+00  -5.726677e-06 -1.799427e-07 0.000000e+00  -5.305063e-06 -2.483761e-07 0.000000e+00  -4.750699e-06 -3.165909e-07 0.000000e+00  -4.051570e-06 -3.840742e-07 0.000000e+00  -3.222616e-06 -4.495921e-07 0.000000e+00  -2.283159e-06 -5.119612e-07 0.000000e+00  -1.226230e-06 -5.706658e-07 0.000000e+00  -4.407038e-08 -6.251576e-07 0.000000e+00  1.239082e-06 -6.743329e-07 0.000000e+00  2.595317e-06 -7.171897e-07 0.000000e+00  4.027866e-06 -7.532889e-07 0.000000e+00  5.540486e-06 -7.821828e-07 0.000000e+00  7.101311e-06 -8.030619e-07 0.000000e+00  8.675918e-06 -8.152697e-07 0.000000e+00  1.026493e-05 -8.185761e-07 0.000000e+00  1.186940e-05 -8.127626e-07 0.000000e+00  1.345276e-05 -7.974662e-07 0.000000e+00  1.497737e-05 -7.725208e-07 0.000000e+00  1.644333e-05 -7.380161e-07 0.000000e+00  1.785120e-05 -6.940647e-07 0.000000e+00  1.916370e-05 -6.408680e-07 0.000000e+00  2.034426e-05 -5.788561e-07 0.000000e+00  2.139523e-05 -5.085067e-07 0.000000e+00  2.231954e-05 -4.303189e-07 0.000000e+00  2.308390e-05 -3.451218e-07 0.000000e+00  2.365768e-05 -2.539875e-07 0.000000e+00  2.404859e-05 -1.577902e-07 0.000000e+00  2.426493e-05 -5.740825e-08 0.000000e+00  2.428235e-05 4.570927e-08 0.000000e+00  2.408107e-05 1.498781e-07 0.000000e+00  2.367705e-05 2.538903e-07 0.000000e+00  2.308665e-05 3.565665e-07 0.000000e+00  2.229897e-05 4.559272e-07 0.000000e+00  2.130947e-05 5.497906e-07 0.000000e+00  2.014436e-05 6.367518e-07 0.000000e+00  1.882987e-05 7.154782e-07 0.000000e+00  1.737204e-05 7.836353e-07 0.000000e+00  1.578454e-05 8.387526e-07 0.000000e+00  1.410452e-05 8.794390e-07 0.000000e+00  1.236836e-05 9.044264e-07 0.000000e+00  1.060061e-05 9.113195e-07 0.000000e+00  8.833838e-06 8.977386e-07 0.000000e+00  7.114370e-06 8.626930e-07 0.000000e+00  5.486434e-06 8.054471e-07 0.000000e+00  3.990438e-06 7.243966e-07 0.000000e+00  2.672218e-06 6.186991e-07 0.000000e+00  1.577545e-06 4.899451e-07 0.000000e+00  7.437177e-07 3.419072e-07 0.000000e+00  1.993351e-07 1.825819e-07 0.000000e+00  -5.072535e-08 3.233534e-08 0.000000e+00  -6.050067e-08 -6.063979e-08 0.000000e+00  -1.369901e-11 -1.215354e-11 0.000000e+00  6.637962e-13 -2.657443e-12 0.000000e+00  -2.221743e-08 -5.427299e-08 0.000000e+00  -2.473364e-07 2.499592e-07 0.000000e+00  -8.288587e-07 6.993614e-07 0.000000e+00  -1.824495e-06 1.180861e-06 0.000000e+00  -3.236150e-06 1.636320e-06 0.000000e+00  -5.030733e-06 2.036555e-06 0.000000e+00  -7.155400e-06 2.367630e-06 0.000000e+00  -9.547119e-06 2.623850e-06 0.000000e+00  -1.213848e-05 2.804211e-06 0.000000e+00  -1.486139e-05 2.910522e-06 0.000000e+00  -1.764946e-05 2.946346e-06 0.000000e+00  -2.043955e-05 2.916384e-06 0.000000e+00  -2.318049e-05 2.827212e-06 0.000000e+00  -2.579550e-05 2.681430e-06 0.000000e+00  -2.824956e-05 2.487631e-06 0.000000e+00  -3.052176e-05 2.254254e-06 0.000000e+00  -3.255807e-05 1.985657e-06 0.000000e+00  -3.430300e-05 1.686600e-06 0.000000e+00  -3.575377e-05 1.365476e-06 0.000000e+00  -3.692033e-05 1.030057e-06 0.000000e+00  -3.776498e-05 6.846416e-07 0.000000e+00  -3.824980e-05 3.337447e-07 0.000000e+00  -3.840146e-05 -1.566816e-08 0.000000e+00  -3.825653e-05 -3.574795e-07 0.000000e+00  -3.779210e-05 -6.882213e-07 0.000000e+00  -3.698571e-05 -1.004344e-06 0.000000e+00  -3.588681e-05 -1.300970e-06 0.000000e+00  -3.455128e-05 -1.574164e-06 0.000000e+00  -3.296710e-05 -1.821726e-06 0.000000e+00  -3.112286e-05 -2.041450e-06 0.000000e+00  -2.908228e-05 -2.230815e-06 0.000000e+00  -2.691187e-05 -2.388237e-06 0.000000e+00  -2.460538e-05 -2.512918e-06 0.000000e+00  -2.215718e-05 -2.604075e-06 0.000000e+00  -1.963627e-05 -2.661491e-06 0.000000e+00  -1.711100e-05 -2.685792e-06 0.000000e+00  -1.457573e-05 -2.677463e-06 0.000000e+00  -1.202550e-05 -2.636975e-06 0.000000e+00  -9.526307e-06 -2.566097e-06 0.000000e+00  -7.140475e-06 -2.467300e-06 0.000000e+00  -4.858693e-06 -2.342031e-06 0.000000e+00  -2.672534e-06 -2.191653e-06 0.000000e+00  -6.382417e-07 -2.019437e-06 0.000000e+00  1.193994e-06 -1.829169e-06 0.000000e+00  2.839990e-06 -1.622807e-06 0.000000e+00  4.314176e-06 -1.402149e-06 0.000000e+00  5.574734e-06 -1.171372e-06 0.000000e+00  6.587549e-06 -9.349747e-07 0.000000e+00  7.375937e-06 -6.949298e-07 0.000000e+00  7.961024e-06 -4.529656e-07 0.000000e+00  8.317764e-06 -2.135561e-07 0.000000e+00  8.429714e-06 1.869384e-08 0.000000e+00  8.326801e-06 2.422794e-07 0.000000e+00  8.035670e-06 4.560069e-07 0.000000e+00  7.548119e-06 6.556718e-07 0.000000e+00  6.864749e-06 8.371094e-07 0.000000e+00  6.019492e-06 9.996872e-07 0.000000e+00  5.041715e-06 1.143123e-06 0.000000e+00  3.938139e-06 1.263948e-06 0.000000e+00  2.723871e-06 1.358872e-06 0.000000e+00  1.432935e-06 1.428414e-06 0.000000e+00  9.341691e-08 1.473450e-06 0.000000e+00  -1.276492e-06 1.491570e-06 0.000000e+00  -2.651100e-06 1.480644e-06 0.000000e+00  -4.000998e-06 1.442470e-06 0.000000e+00  -5.304004e-06 1.379163e-06 0.000000e+00  -6.534853e-06 1.289532e-06 0.000000e+00  -7.661964e-06 1.172719e-06 0.000000e+00  -8.665391e-06 1.031757e-06 0.000000e+00  -9.533461e-06 8.699049e-07 0.000000e+00  -1.023850e-05 6.871727e-07 0.000000e+00  -1.074784e-05 4.839150e-07 0.000000e+00  -1.105532e-05 2.641693e-07 0.000000e+00  -1.116367e-05 3.207783e-08 0.000000e+00  -1.104708e-05 -2.113411e-07 0.000000e+00  -1.067604e-05 -4.647510e-07 0.000000e+00  -1.006129e-05 -7.234945e-07 0.000000e+00  -9.222546e-06 -9.829728e-07 0.000000e+00  -8.139091e-06 -1.241498e-06 0.000000e+00  -6.787654e-06 -1.497124e-06 0.000000e+00  -5.197254e-06 -1.745095e-06 0.000000e+00  -3.405269e-06 -1.980902e-06 0.000000e+00  -1.397802e-06 -2.202640e-06 0.000000e+00  8.407368e-07 -2.408228e-06 0.000000e+00  3.263862e-06 -2.593418e-06 0.000000e+00  5.818098e-06 -2.754408e-06 0.000000e+00  8.510666e-06 -2.889590e-06 0.000000e+00  1.134994e-05 -2.997263e-06 0.000000e+00  1.427516e-05 -3.074319e-06 0.000000e+00  1.722073e-05 -3.118290e-06 0.000000e+00  2.018929e-05 -3.128363e-06 0.000000e+00  2.318440e-05 -3.103713e-06 0.000000e+00  2.613658e-05 -3.042949e-06 0.000000e+00  2.897433e-05 -2.945489e-06 0.000000e+00  3.169957e-05 -2.811734e-06 0.000000e+00  3.431515e-05 -2.642119e-06 0.000000e+00  3.675037e-05 -2.437420e-06 0.000000e+00  3.893591e-05 -2.199338e-06 0.000000e+00  4.087811e-05 -1.929741e-06 0.000000e+00  4.258432e-05 -1.630531e-06 0.000000e+00  4.399148e-05 -1.304889e-06 0.000000e+00  4.504154e-05 -9.569587e-07 0.000000e+00  4.575092e-05 -5.901003e-07 0.000000e+00  4.613704e-05 -2.076481e-07 0.000000e+00  4.615361e-05 1.848577e-07 0.000000e+00  4.576304e-05 5.809578e-07 0.000000e+00  4.499699e-05 9.760601e-07 0.000000e+00  4.388778e-05 1.365710e-06 0.000000e+00  4.241425e-05 1.742373e-06 0.000000e+00  4.056714e-05 2.097750e-06 0.000000e+00  3.839690e-05 2.426573e-06 0.000000e+00  3.595376e-05 2.723868e-06 0.000000e+00  3.324777e-05 2.980836e-06 0.000000e+00  3.030311e-05 3.188227e-06 0.000000e+00  2.718964e-05 3.340999e-06 0.000000e+00  2.397527e-05 3.434610e-06 0.000000e+00  2.070320e-05 3.460312e-06 0.000000e+00  1.743089e-05 3.409628e-06 0.000000e+00  1.424266e-05 3.279561e-06 0.000000e+00  1.121772e-05 3.068251e-06 0.000000e+00  8.424409e-06 2.770924e-06 0.000000e+00  5.939003e-06 2.386256e-06 0.000000e+00  3.837606e-06 1.922497e-06 0.000000e+00  2.178382e-06 1.395953e-06 0.000000e+00  1.000582e-06 8.368026e-07 0.000000e+00  3.083371e-07 3.111021e-07 0.000000e+00  3.182040e-08 -5.050883e-08 0.000000e+00  -1.349917e-11 -1.609545e-11 0.000000e+00  4.190098e-12 -3.976606e-12 0.000000e+00  -1.496654e-07 1.480442e-07 0.000000e+00  -6.948477e-07 8.312221e-07 0.000000e+00  -1.742520e-06 1.745724e-06 0.000000e+00  -3.333003e-06 2.713985e-06 0.000000e+00  -5.459222e-06 3.633725e-06 0.000000e+00  -8.078290e-06 4.447756e-06 0.000000e+00  -1.112428e-05 5.125663e-06 0.000000e+00  -1.451745e-05 5.653144e-06 0.000000e+00  -1.817099e-05 6.025832e-06 0.000000e+00  -2.199585e-05 6.245670e-06 0.000000e+00  -2.590402e-05 6.318734e-06 0.000000e+00  -2.981091e-05 6.253873e-06 0.000000e+00  -3.364858e-05 6.064236e-06 0.000000e+00  -3.730913e-05 5.754624e-06 0.000000e+00  -4.074666e-05 5.342909e-06 0.000000e+00  -4.393456e-05 4.846789e-06 0.000000e+00  -4.679609e-05 4.275239e-06 0.000000e+00  -4.925203e-05 3.638161e-06 0.000000e+00  -5.130026e-05 2.953411e-06 0.000000e+00  -5.295638e-05 2.237565e-06 0.000000e+00  -5.416548e-05 1.499693e-06 0.000000e+00  -5.487210e-05 7.493682e-07 0.000000e+00  -5.511494e-05 1.547708e-09 0.000000e+00  -5.494664e-05 -7.306266e-07 0.000000e+00  -5.433258e-05 -1.439762e-06 0.000000e+00  -5.323858e-05 -2.118254e-06 0.000000e+00  -5.173528e-05 -2.755571e-06 0.000000e+00  -4.990246e-05 -3.343215e-06 0.000000e+00  -4.772059e-05 -3.876454e-06 0.000000e+00  -4.517094e-05 -4.350513e-06 0.000000e+00  -4.234435e-05 -4.759910e-06 0.000000e+00  -3.933560e-05 -5.101191e-06 0.000000e+00  -3.613333e-05 -5.372603e-06 0.000000e+00  -3.272708e-05 -5.572396e-06 0.000000e+00  -2.921526e-05 -5.700044e-06 0.000000e+00  -2.569539e-05 -5.756868e-06 0.000000e+00  -2.215712e-05 -5.743847e-06 0.000000e+00  -1.859122e-05 -5.661901e-06 0.000000e+00  -1.509204e-05 -5.514807e-06 0.000000e+00  -1.174869e-05 -5.307874e-06 0.000000e+00  -8.545967e-06 -5.044133e-06 0.000000e+00  -5.470110e-06 -4.726420e-06 0.000000e+00  -2.601842e-06 -4.361764e-06 0.000000e+00  -1.323858e-08 -3.958332e-06 0.000000e+00  2.319708e-06 -3.520251e-06 0.000000e+00  4.418799e-06 -3.051280e-06 0.000000e+00  6.223592e-06 -2.560430e-06 0.000000e+00  7.684682e-06 -2.057428e-06 0.000000e+00  8.836243e-06 -1.546423e-06 0.000000e+00  9.709055e-06 -1.031026e-06 0.000000e+00  1.026636e-05 -5.209125e-07 0.000000e+00  1.048374e-05 -2.605621e-08 0.000000e+00  1.040428e-05 4.504039e-07 0.000000e+00  1.006606e-05 9.060092e-07 0.000000e+00  9.456199e-06 1.331643e-06 0.000000e+00  8.574476e-06 1.718264e-06 0.000000e+00  7.469175e-06 2.064614e-06 0.000000e+00  6.181778e-06 2.370198e-06 0.000000e+00  4.720626e-06 2.627465e-06 0.000000e+00  3.106194e-06 2.829246e-06 0.000000e+00  1.386470e-06 2.976768e-06 0.000000e+00  -3.992907e-07 3.072023e-06 0.000000e+00  -2.226313e-06 3.109733e-06 0.000000e+00  -4.058908e-06 3.085216e-06 0.000000e+00  -5.855981e-06 3.002455e-06 0.000000e+00  -7.586990e-06 2.866103e-06 0.000000e+00  -9.216856e-06 2.673498e-06 0.000000e+00  -1.070125e-05 2.422699e-06 0.000000e+00  -1.201277e-05 2.120333e-06 0.000000e+00  -1.313601e-05 1.773514e-06 0.000000e+00  -1.403211e-05 1.382156e-06 0.000000e+00  -1.465486e-05 9.469282e-07 0.000000e+00  -1.499654e-05 4.766124e-07 0.000000e+00  -1.506233e-05 -1.979863e-08 0.000000e+00  -1.481559e-05 -5.402193e-07 0.000000e+00  -1.421410e-05 -1.081867e-06 0.000000e+00  -1.327424e-05 -1.634645e-06 0.000000e+00  -1.202527e-05 -2.188600e-06 0.000000e+00  -1.043728e-05 -2.740206e-06 0.000000e+00  -8.476440e-06 -3.285371e-06 0.000000e+00  -6.184994e-06 -3.813807e-06 0.000000e+00  -3.617191e-06 -4.315781e-06 0.000000e+00  -7.522610e-07 -4.787304e-06 0.000000e+00  2.433233e-06 -5.223989e-06 0.000000e+00  5.872376e-06 -5.616668e-06 0.000000e+00  9.488260e-06 -5.957165e-06 0.000000e+00  1.329270e-05 -6.242123e-06 0.000000e+00  1.729937e-05 -6.467970e-06 0.000000e+00  2.142130e-05 -6.628021e-06 0.000000e+00  2.556458e-05 -6.716997e-06 0.000000e+00  2.973500e-05 -6.733247e-06 0.000000e+00  3.393981e-05 -6.675071e-06 0.000000e+00  3.807982e-05 -6.539504e-06 0.000000e+00  4.205302e-05 -6.325351e-06 0.000000e+00  4.586450e-05 -6.033557e-06 0.000000e+00  4.952075e-05 -5.665110e-06 0.000000e+00  5.292104e-05 -5.221728e-06 0.00000