<?xml version="1.0"?>
<VTKFile type="UnstructuredGrid"  version="0.1"  >
<UnstructuredGrid>
<Piece  NumberOfPoints="16641" NumberOfCells="32768">
<Points>
<DataArray  type="Float32"  NumberOfComponents="3"  format="ascii">0 0 0  0.0078125 0 0  0.015625 0 0  0.0234375 0 0  0.03125 0 0  0.0390625 0 0  0.046875 0 0  0.0546875 0 0  0.0625 0 0  0.0703125 0 0  0.078125 0 0  0.0859375 0 0  0.09375 0 0  0.101562 0 0  0.109375 0 0  0.117188 0 0  0.125 0 0  0.132812 0 0  0.140625 0 0  0.148438 0 0  0.15625 0 0  0.164062 0 0  0.171875 0 0  0.179688 0 0  0.1875 0 0  0.195312 0 0  0.203125 0 0  0.210938 0 0  0.21875 0 0  0.226562 0 0  0.234375 0 0  0.242188 0 0  0.25 0 0  0.257812 0 0  0.265625 0 0  0.273438 0 0  0.28125 0 0  0.289062 0 0  0.296875 0 0  0.304688 0 0  0.3125 0 0  0.320312 0 0  0.328125 0 0  0.335938 0 0  0.34375 0 0  0.351562 0 0  0.359375 0 0  0.367188 0 0  0.375 0 0  0.382812 0 0  0.390625 0 0  0.398438 0 0  0.40625 0 0  0.414062 0 0  0.421875 0 0  0.429688 0 0  0.4375 0 0  0.445312 0 0  0.453125 0 0  0.460938 0 0  0.46875 0 0  0.476562 0 0  0.484375 0 0  0.492188 0 0  0.5 0 0  0.507812 0 0  0.515625 0 0  0.523438 0 0  0.53125 0 0  0.539062 0 0  0.546875 0 0  0.554688 0 0  0.5625 0 0  0.570312 0 0  0.578125 0 0  0.585938 0 0  0.59375 0 0  0.601562 0 0  0.609375 0 0  0.617188 0 0  0.625 0 0  0.632812 0 0  0.640625 0 0  0.648438 0 0  0.65625 0 0  0.664062 0 0  0.671875 0 0  0.679688 0 0  0.6875 0 0  0.695312 0 0  0.703125 0 0  0.710938 0 0  0.71875 0 0  0.726562 0 0  0.734375 0 0  0.742188 0 0  0.75 0 0  0.757812 0 0  0.765625 0 0  0.773438 0 0  0.78125 0 0  0.789062 0 0  0.796875 0 0  0.804688 0 0  0.8125 0 0  0.820312 0 0  0.828125 0 0  0.835938 0 0  0.84375 0 0  0.851562 0 0  0.859375 0 0  0.867188 0 0  0.875 0 0  0.882812 0 0  0.890625 0 0  0.898438 0 0  0.90625 0 0  0.914062 0 0  0.921875 0 0  0.929688 0 0  0.9375 0 0  0.945312 0 0  0.953125 0 0  0.960938 0 0  0.96875 0 0  0.976562 0 0  0.984375 0 0  0.992188 0 0  1 0 0  0 0.0078125 0  0.0078125 0.0078125 0  0.015625 0.0078125 0  0.0234375 0.0078125 0  0.03125 0.0078125 0  0.0390625 0.0078125 0  0.046875 0.0078125 0  0.0546875 0.0078125 0  0.0625 0.0078125 0  0.0703125 0.0078125 0  0.078125 0.0078125 0  0.0859375 0.0078125 0  0.09375 0.0078125 0  0.101562 0.0078125 0  0.109375 0.0078125 0  0.117188 0.0078125 0  0.125 0.0078125 0  0.132812 0.0078125 0  0.140625 0.0078125 0  0.148438 0.0078125 0  0.15625 0.0078125 0  0.164062 0.0078125 0  0.171875 0.0078125 0  0.179688 0.0078125 0  0.1875 0.0078125 0  0.195312 0.0078125 0  0.203125 0.0078125 0  0.210938 0.0078125 0  0.21875 0.0078125 0  0.226562 0.0078125 0  0.234375 0.0078125 0  0.242188 0.0078125 0  0.25 0.0078125 0  0.257812 0.0078125 0  0.265625 0.0078125 0  0.273438 0.0078125 0  0.28125 0.0078125 0  0.289062 0.0078125 0  0.296875 0.0078125 0  0.304688 0.0078125 0  0.3125 0.0078125 0  0.320312 0.0078125 0  0.328125 0.0078125 0  0.335938 0.0078125 0  0.34375 0.0078125 0  0.351562 0.0078125 0  0.359375 0.0078125 0  0.367188 0.0078125 0  0.375 0.0078125 0  0.382812 0.0078125 0  0.390625 0.0078125 0  0.398438 0.0078125 0  0.40625 0.0078125 0  0.414062 0.0078125 0  0.421875 0.0078125 0  0.429688 0.0078125 0  0.4375 0.0078125 0  0.445312 0.0078125 0  0.453125 0.0078125 0  0.460938 0.0078125 0  0.46875 0.0078125 0  0.476562 0.0078125 0  0.484375 0.0078125 0  0.492188 0.0078125 0  0.5 0.0078125 0  0.507812 0.0078125 0  0.515625 0.0078125 0  0.523438 0.0078125 0  0.53125 0.0078125 0  0.539062 0.0078125 0  0.546875 0.0078125 0  0.554688 0.0078125 0  0.5625 0.0078125 0  0.570312 0.0078125 0  0.578125 0.0078125 0  0.585938 0.0078125 0  0.59375 0.0078125 0  0.601562 0.0078125 0  0.609375 0.0078125 0  0.617188 0.0078125 0  0.625 0.0078125 0  0.632812 0.0078125 0  0.640625 0.0078125 0  0.648438 0.0078125 0  0.65625 0.0078125 0  0.664062 0.0078125 0  0.671875 0.0078125 0  0.679688 0.0078125 0  0.6875 0.0078125 0  0.695312 0.0078125 0  0.703125 0.0078125 0  0.710938 0.0078125 0  0.71875 0.0078125 0  0.726562 0.0078125 0  0.734375 0.0078125 0  0.742188 0.0078125 0  0.75 0.0078125 0  0.757812 0.0078125 0  0.765625 0.0078125 0  0.773438 0.0078125 0  0.78125 0.0078125 0  0.789062 0.0078125 0  0.796875 0.0078125 0  0.804688 0.0078125 0  0.8125 0.0078125 0  0.820312 0.0078125 0  0.828125 0.0078125 0  0.835938 0.0078125 0  0.84375 0.0078125 0  0.851562 0.0078125 0  0.859375 0.0078125 0  0.867188 0.0078125 0  0.875 0.0078125 0  0.882812 0.0078125 0  0.890625 0.0078125 0  0.898438 0.0078125 0  0.90625 0.0078125 0  0.914062 0.0078125 0  0.921875 0.0078125 0  0.929688 0.0078125 0  0.9375 0.0078125 0  0.945312 0.0078125 0  0.953125 0.0078125 0  0.960938 0.0078125 0  0.96875 0.0078125 0  0.976562 0.0078125 0  0.984375 0.0078125 0  0.992188 0.0078125 0  1 0.0078125 0  0 0.015625 0  0.0078125 0.015625 0  0.015625 0.015625 0  0.0234375 0.015625 0  0.03125 0.015625 0  0.0390625 0.015625 0  0.046875 0.015625 0  0.0546875 0.015625 0  0.0625 0.015625 0  0.0703125 0.015625 0  0.078125 0.015625 0  0.0859375 0.015625 0  0.09375 0.015625 0  0.101562 0.015625 0  0.109375 0.015625 0  0.117188 0.015625 0  0.125 0.015625 0  0.132812 0.015625 0  0.140625 0.015625 0  0.148438 0.015625 0  0.15625 0.015625 0  0.164062 0.015625 0  0.171875 0.015625 0  0.179688 0.015625 0  0.1875 0.015625 0  0.195312 0.015625 0  0.203125 0.015625 0  0.210938 0.015625 0  0.21875 0.015625 0  0.226562 0.015625 0  0.234375 0.015625 0  0.242188 0.015625 0  0.25 0.015625 0  0.257812 0.015625 0  0.265625 0.015625 0  0.273438 0.015625 0  0.28125 0.015625 0  0.289062 0.015625 0  0.296875 0.015625 0  0.304688 0.015625 0  0.3125 0.015625 0  0.320312 0.015625 0  0.328125 0.015625 0  0.335938 0.015625 0  0.34375 0.015625 0  0.351562 0.015625 0  0.359375 0.015625 0  0.367188 0.015625 0  0.375 0.015625 0  0.382812 0.015625 0  0.390625 0.015625 0  0.398438 0.015625 0  0.40625 0.015625 0  0.414062 0.015625 0  0.421875 0.015625 0  0.429688 0.015625 0  0.4375 0.015625 0  0.445312 0.015625 0  0.453125 0.015625 0  0.460938 0.015625 0  0.46875 0.015625 0  0.476562 0.015625 0  0.484375 0.015625 0  0.492188 0.015625 0  0.5 0.015625 0  0.507812 0.015625 0  0.515625 0.015625 0  0.523438 0.015625 0  0.53125 0.015625 0  0.539062 0.015625 0  0.546875 0.015625 0  0.554688 0.015625 0  0.5625 0.015625 0  0.570312 0.015625 0  0.578125 0.015625 0  0.585938 0.015625 0  0.59375 0.015625 0  0.601562 0.015625 0  0.609375 0.015625 0  0.617188 0.015625 0  0.625 0.015625 0  0.632812 0.015625 0  0.640625 0.015625 0  0.648438 0.015625 0  0.65625 0.015625 0  0.664062 0.015625 0  0.671875 0.015625 0  0.679688 0.015625 0  0.6875 0.015625 0  0.695312 0.015625 0  0.703125 0.015625 0  0.710938 0.015625 0  0.71875 0.015625 0  0.726562 0.015625 0  0.734375 0.015625 0  0.742188 0.015625 0  0.75 0.015625 0  0.757812 0.015625 0  0.765625 0.015625 0  0.773438 0.015625 0  0.78125 0.015625 0  0.789062 0.015625 0  0.796875 0.015625 0  0.804688 0.015625 0  0.8125 0.015625 0  0.820312 0.015625 0  0.828125 0.015625 0  0.835938 0.015625 0  0.84375 0.015625 0  0.851562 0.015625 0  0.859375 0.015625 0  0.867188 0.015625 0  0.875 0.015625 0  0.882812 0.015625 0  0.890625 0.015625 0  0.898438 0.015625 0  0.90625 0.015625 0  0.914062 0.015625 0  0.921875 0.015625 0  0.929688 0.015625 0  0.9375 0.015625 0  0.945312 0.015625 0  0.953125 0.015625 0  0.960938 0.015625 0  0.96875 0.015625 0  0.976562 0.015625 0  0.984375 0.015625 0  0.992188 0.015625 0  1 0.015625 0  0 0.0234375 0  0.0078125 0.0234375 0  0.015625 0.0234375 0  0.0234375 0.0234375 0  0.03125 0.0234375 0  0.0390625 0.0234375 0  0.046875 0.0234375 0  0.0546875 0.0234375 0  0.0625 0.0234375 0  0.0703125 0.0234375 0  0.078125 0.0234375 0  0.0859375 0.0234375 0  0.09375 0.0234375 0  0.101562 0.0234375 0  0.109375 0.0234375 0  0.117188 0.0234375 0  0.125 0.0234375 0  0.132812 0.0234375 0  0.140625 0.0234375 0  0.148438 0.0234375 0  0.15625 0.0234375 0  0.164062 0.0234375 0  0.171875 0.0234375 0  0.179688 0.0234375 0  0.1875 0.0234375 0  0.195312 0.0234375 0  0.203125 0.0234375 0  0.210938 0.0234375 0  0.21875 0.0234375 0  0.226562 0.0234375 0  0.234375 0.0234375 0  0.242188 0.0234375 0  0.25 0.0234375 0  0.257812 0.0234375 0  0.265625 0.0234375 0  0.273438 0.0234375 0  0.28125 0.0234375 0  0.289062 0.0234375 0  0.296875 0.0234375 0  0.304688 0.0234375 0  0.3125 0.0234375 0  0.320312 0.0234375 0  0.328125 0.0234375 0  0.335938 0.0234375 0  0.34375 0.0234375 0  0.351562 0.0234375 0  0.359375 0.0234375 0  0.367188 0.0234375 0  0.375 0.0234375 0  0.382812 0.0234375 0  0.390625 0.0234375 0  0.398438 0.0234375 0  0.40625 0.0234375 0  0.414062 0.0234375 0  0.421875 0.0234375 0  0.429688 0.0234375 0  0.4375 0.0234375 0  0.445312 0.0234375 0  0.453125 0.0234375 0  0.460938 0.0234375 0  0.46875 0.0234375 0  0.476562 0.0234375 0  0.484375 0.0234375 0  0.492188 0.0234375 0  0.5 0.0234375 0  0.507812 0.0234375 0  0.515625 0.0234375 0  0.523438 0.0234375 0  0.53125 0.0234375 0  0.539062 0.0234375 0  0.546875 0.0234375 0  0.554688 0.0234375 0  0.5625 0.0234375 0  0.570312 0.0234375 0  0.578125 0.0234375 0  0.585938 0.0234375 0  0.59375 0.0234375 0  0.601562 0.0234375 0  0.609375 0.0234375 0  0.617188 0.0234375 0  0.625 0.0234375 0  0.632812 0.0234375 0  0.640625 0.0234375 0  0.648438 0.0234375 0  0.65625 0.0234375 0  0.664062 0.0234375 0  0.671875 0.0234375 0  0.679688 0.0234375 0  0.6875 0.0234375 0  0.695312 0.0234375 0  0.703125 0.0234375 0  0.710938 0.0234375 0  0.71875 0.0234375 0  0.726562 0.0234375 0  0.734375 0.0234375 0  0.742188 0.0234375 0  0.75 0.0234375 0  0.757812 0.0234375 0  0.765625 0.0234375 0  0.773438 0.0234375 0  0.78125 0.0234375 0  0.789062 0.0234375 0  0.796875 0.0234375 0  0.804688 0.0234375 0  0.8125 0.0234375 0  0.820312 0.0234375 0  0.828125 0.0234375 0  0.835938 0.0234375 0  0.84375 0.0234375 0  0.851562 0.0234375 0  0.859375 0.0234375 0  0.867188 0.0234375 0  0.875 0.0234375 0  0.882812 0.0234375 0  0.890625 0.0234375 0  0.898438 0.0234375 0  0.90625 0.0234375 0  0.914062 0.0234375 0  0.921875 0.0234375 0  0.929688 0.0234375 0  0.9375 0.0234375 0  0.945312 0.0234
[...]
<PointData  Vectors="u"> 
<DataArray  type="Float32"  Name="u"  NumberOfComponents="3" format="ascii">1.093225e-10 -4.987703e-11 0.000000e+00  4.884697e-11 -1.362436e-11 0.000000e+00  9.936748e-12 1.972354e-11 0.000000e+00  -4.003144e-11 -5.524324e-12 0.000000e+00  -3.948896e-11 -6.285447e-11 0.000000e+00  8.501992e-12 -1.346854e-10 0.000000e+00  1.416147e-10 -2.170436e-10 0.000000e+00  3.696114e-10 -3.015573e-10 0.000000e+00  6.922805e-10 -3.817816e-10 0.000000e+00  1.103254e-09 -4.535638e-10 0.000000e+00  1.592305e-09 -5.144390e-10 0.000000e+00  2.146897e-09 -5.630946e-10 0.000000e+00  2.753801e-09 -5.990819e-10 0.000000e+00  3.397804e-09 -6.223289e-10 0.000000e+00  4.066806e-09 -6.335666e-10 0.000000e+00  4.747362e-09 -6.335423e-10 0.000000e+00  5.425800e-09 -6.231377e-10 0.000000e+00  6.091550e-09 -6.036013e-10 0.000000e+00  6.736665e-09 -5.763495e-10 0.000000e+00  7.352131e-09 -5.426486e-10 0.000000e+00  7.928923e-09 -5.037282e-10 0.000000e+00  8.462454e-09 -4.609928e-10 0.000000e+00  8.951138e-09 -4.158478e-10 0.000000e+00  9.391379e-09 -3.694827e-10 0.000000e+00  9.779321e-09 -3.229897e-10 0.000000e+00  1.011614e-08 -2.774979e-10 0.000000e+00  1.040578e-08 -2.340455e-10 0.000000e+00  1.064920e-08 -1.934686e-10 0.000000e+00  1.084668e-08 -1.564877e-10 0.000000e+00  1.100355e-08 -1.237677e-10 0.000000e+00  1.112740e-08 -9.584765e-11 0.000000e+00  1.122202e-08 -7.310656e-11 0.000000e+00  1.129006e-08 -5.580819e-11 0.000000e+00  1.133884e-08 -4.411858e-11 0.000000e+00  1.137748e-08 -3.808777e-11 0.000000e+00  1.141063e-08 -3.764691e-11 0.000000e+00  1.144129e-08 -4.261856e-11 0.000000e+00  1.147679e-08 -5.273570e-11 0.000000e+00  1.152575e-08 -6.765689e-11 0.000000e+00  1.159190e-08 -8.694640e-11 0.000000e+00  1.167685e-08 -1.100676e-10 0.000000e+00  1.178620e-08 -1.364435e-10 0.000000e+00  1.192669e-08 -1.654820e-10 0.000000e+00  1.209974e-08 -1.965009e-10 0.000000e+00  1.230416e-08 -2.287253e-10 0.000000e+00  1.254276e-08 -2.614168e-10 0.000000e+00  1.281959e-08 -2.938842e-10 0.000000e+00  1.313294e-08 -3.253374e-10 0.000000e+00  1.347798e-08 -3.549080e-10 0.000000e+00  1.385431e-08 -3.818495e-10 0.000000e+00  1.426312e-08 -4.055179e-10 0.000000e+00  1.469931e-08 -4.251617e-10 0.000000e+00  1.515427e-08 -4.399767e-10 0.000000e+00  1.562457e-08 -4.493556e-10 0.000000e+00  1.610901e-08 -4.528310e-10 0.000000e+00  1.659945e-08 -4.498321e-10 0.000000e+00  1.708404e-08 -4.397759e-10 0.000000e+00  1.755714e-08 -4.223193e-10 0.000000e+00  1.801603e-08 -3.972671e-10 0.000000e+00  1.845055e-08 -3.643499e-10 0.000000e+00  1.884679e-08 -3.233377e-10 0.000000e+00  1.919817e-08 -2.742344e-10 0.000000e+00  1.950168e-08 -2.171651e-10 0.000000e+00  1.974657e-08 -1.522391e-10 0.000000e+00  1.991858e-08 -7.966539e-11 0.000000e+00  2.001174e-08 1.779211e-13 0.000000e+00  2.002405e-08 8.685276e-11 0.000000e+00  1.994589e-08 1.798478e-10 0.000000e+00  1.976467e-08 2.784882e-10 0.000000e+00  1.947653e-08 3.820531e-10 0.000000e+00  1.908173e-08 4.898502e-10 0.000000e+00  1.857345e-08 6.009994e-10 0.000000e+00  1.794280e-08 7.143986e-10 0.000000e+00  1.718942e-08 8.290688e-10 0.000000e+00  1.631660e-08 9.441648e-10 0.000000e+00  1.532187e-08 1.058527e-09 0.000000e+00  1.420183e-08 1.170729e-09 0.000000e+00  1.296042e-08 1.279667e-09 0.000000e+00  1.160442e-08 1.384475e-09 0.000000e+00  1.013671e-08 1.483858e-09 0.000000e+00  8.560581e-09 1.576234e-09 0.000000e+00  6.884574e-09 1.660544e-09 0.000000e+00  5.118688e-09 1.736066e-09 0.000000e+00  3.271530e-09 1.801557e-09 0.000000e+00  1.353455e-09 1.855512e-09 0.000000e+00  -6.229328e-10 1.897120e-09 0.000000e+00  -2.645304e-09 1.925978e-09 0.000000e+00  -4.699893e-09 1.941127e-09 0.000000e+00  -6.770003e-09 1.941412e-09 0.000000e+00  -8.840371e-09 1.926478e-09 0.000000e+00  -1.089796e-08 1.896409e-09 0.000000e+00  -1.292543e-08 1.850763e-09 0.000000e+00  -1.490170e-08 1.788995e-09 0.000000e+00  -1.681109e-08 1.711379e-09 0.000000e+00  -1.864209e-08 1.618589e-09 0.000000e+00  -2.037632e-08 1.510871e-09 0.000000e+00  -2.199132e-08 1.388471e-09 0.000000e+00  -2.347384e-08 1.252358e-09 0.000000e+00  -2.481635e-08 1.103797e-09 0.000000e+00  -2.600255e-08 9.437688e-10 0.000000e+00  -2.701227e-08 7.733675e-10 0.000000e+00  -2.783751e-08 5.941940e-10 0.000000e+00  -2.847700e-08 4.079900e-10 0.000000e+00  -2.891967e-08 2.164114e-10 0.000000e+00  -2.915130e-08 2.132293e-11 0.000000e+00  -2.917158e-08 -1.751928e-10 0.000000e+00  -2.898710e-08 -3.710832e-10 0.000000e+00  -2.859479e-08 -5.641540e-10 0.000000e+00  -2.798957e-08 -7.519213e-10 0.000000e+00  -2.718049e-08 -9.320010e-10 0.000000e+00  -2.618298e-08 -1.102191e-09 0.000000e+00  -2.500407e-08 -1.259921e-09 0.000000e+00  -2.365027e-08 -1.402291e-09 0.000000e+00  -2.214092e-08 -1.526797e-09 0.000000e+00  -2.050063e-08 -1.631228e-09 0.000000e+00  -1.874791e-08 -1.712848e-09 0.000000e+00  -1.690238e-08 -1.768637e-09 0.000000e+00  -1.499383e-08 -1.796234e-09 0.000000e+00  -1.305590e-08 -1.793675e-09 0.000000e+00  -1.111906e-08 -1.758535e-09 0.000000e+00  -9.215939e-09 -1.688434e-09 0.000000e+00  -7.385876e-09 -1.582088e-09 0.000000e+00  -5.670418e-09 -1.439318e-09 0.000000e+00  -4.110258e-09 -1.260108e-09 0.000000e+00  -2.748559e-09 -1.044980e-09 0.000000e+00  -1.634112e-09 -8.015797e-10 0.000000e+00  -8.180244e-10 -5.404159e-10 0.000000e+00  -3.660391e-10 -3.396434e-10 0.000000e+00  -2.742941e-10 -3.533939e-10 0.000000e+00  -5.734743e-11 1.805554e-11 0.000000e+00  7.977194e-07 -7.957590e-07 0.000000e+00  2.058376e-06 -7.323714e-07 0.000000e+00  2.587697e-06 -1.183579e-07 0.000000e+00  1.700155e-06 7.357989e-07 0.000000e+00  -8.827572e-07 1.663442e-06 0.000000e+00  -5.214044e-06 2.568726e-06 0.000000e+00  -1.120428e-05 3.396570e-06 0.000000e+00  -1.868105e-05 4.115832e-06 0.000000e+00  -2.742457e-05 4.709972e-06 0.000000e+00  -3.719070e-05 5.172021e-06 0.000000e+00  -4.772672e-05 5.501544e-06 0.000000e+00  -5.878232e-05 5.702707e-06 0.000000e+00  -7.012130e-05 5.783288e-06 0.000000e+00  -8.150811e-05 5.752226e-06 0.000000e+00  -9.274536e-05 5.621623e-06 0.000000e+00  -1.036630e-04 5.404604e-06 0.000000e+00  -1.140957e-04 5.113852e-06 0.000000e+00  -1.239000e-04 4.762444e-06 0.000000e+00  -1.329824e-04 4.364419e-06 0.000000e+00  -1.412787e-04 3.933433e-06 0.000000e+00  -1.487225e-04 3.481800e-06 0.000000e+00  -1.552686e-04 3.021283e-06 0.000000e+00  -1.609247e-04 2.563559e-06 0.000000e+00  -1.657226e-04 2.119262e-06 0.000000e+00  -1.696797e-04 1.697409e-06 0.000000e+00  -1.728287e-04 1.306042e-06 0.000000e+00  -1.752526e-04 9.525328e-07 0.000000e+00  -1.770484e-04 6.429716e-07 0.000000e+00  -1.782872e-04 3.819347e-07 0.000000e+00  -1.790470e-04 1.729340e-07 0.000000e+00  -1.794495e-04 1.853779e-08 0.000000e+00  -1.796209e-04 -7.991907e-08 0.000000e+00  -1.796504e-04 -1.222797e-07 0.000000e+00  -1.796265e-04 -1.093202e-07 0.000000e+00  -1.796739e-04 -4.281570e-08 0.000000e+00  -1.799128e-04 7.444914e-08 0.000000e+00  -1.804186e-04 2.389811e-07 0.000000e+00  -1.812603e-04 4.466139e-07 0.000000e+00  -1.825351e-04 6.922579e-07 0.000000e+00  -1.843290e-04 9.701285e-07 0.000000e+00  -1.866800e-04 1.274251e-06 0.000000e+00  -1.896153e-04 1.598293e-06 0.000000e+00  -1.931838e-04 1.935142e-06 0.000000e+00  -1.974190e-04 2.277341e-06 0.000000e+00  -2.023071e-04 2.617758e-06 0.000000e+00  -2.078218e-04 2.949239e-06 0.000000e+00  -2.139534e-04 3.264035e-06 0.000000e+00  -2.206751e-04 3.554410e-06 0.000000e+00  -2.279176e-04 3.813453e-06 0.000000e+00  -2.356002e-04 4.034566e-06 0.000000e+00  -2.436551e-04 4.210764e-06 0.000000e+00  -2.519987e-04 4.335430e-06 0.000000e+00  -2.605131e-04 4.403217e-06 0.000000e+00  -2.690732e-04 4.409394e-06 0.000000e+00  -2.775638e-04 4.349047e-06 0.000000e+00  -2.858586e-04 4.217919e-06 0.000000e+00  -2.938082e-04 4.013377e-06 0.000000e+00  -3.012617e-04 3.733623e-06 0.000000e+00  -3.080774e-04 3.376813e-06 0.000000e+00  -3.141083e-04 2.941953e-06 0.000000e+00  -3.191981e-04 2.429871e-06 0.000000e+00  -3.231957e-04 1.842335e-06 0.000000e+00  -3.259593e-04 1.181103e-06 0.000000e+00  -3.273487e-04 4.488430e-07 0.000000e+00  -3.272288e-04 -3.499162e-07 0.000000e+00  -3.254772e-04 -1.209743e-06 0.000000e+00  -3.219803e-04 -2.125281e-06 0.000000e+00  -3.166331e-04 -3.090336e-06 0.000000e+00  -3.093497e-04 -4.096983e-06 0.000000e+00  -3.000636e-04 -5.136563e-06 0.000000e+00  -2.887157e-04 -6.200648e-06 0.000000e+00  -2.752612e-04 -7.280177e-06 0.000000e+00  -2.596873e-04 -8.364642e-06 0.000000e+00  -2.420050e-04 -9.443086e-06 0.000000e+00  -2.222297e-04 -1.050503e-05 0.000000e+00  -2.003953e-04 -1.153968e-05 0.000000e+00  -1.765773e-04 -1.253523e-05 0.000000e+00  -1.508767e-04 -1.347980e-05 0.000000e+00  -1.233939e-04 -1.436236e-05 0.000000e+00  -9.424886e-05 -1.517194e-05 0.000000e+00  -6.360885e-05 -1.589716e-05 0.000000e+00  -3.166490e-05 -1.652707e-05 0.000000e+00  1.400172e-06 -1.705192e-05 0.000000e+00  3.538705e-05 -1.746259e-05 0.000000e+00  7.004809e-05 -1.775020e-05 0.000000e+00  1.051177e-04 -1.790686e-05 0.000000e+00  1.403497e-04 -1.792629e-05 0.000000e+00  1.754881e-04 -1.780338e-05 0.000000e+00  2.102332e-04 -1.753391e-05 0.000000e+00  2.442774e-04 -1.711518e-05 0.000000e+00  2.773461e-04 -1.654637e-05 0.000000e+00  3.091659e-04 -1.582820e-05 0.000000e+00  3.394284e-04 -1.496281e-05 0.000000e+00  3.678308e-04 -1.395413e-05 0.000000e+00  3.941181e-04 -1.280796e-05 0.000000e+00  4.180487e-04 -1.153171e-05 0.000000e+00  4.393585e-04 -1.013445e-05 0.000000e+00  4.578028e-04 -8.627004e-06 0.000000e+00  4.731984e-04 -7.021684e-06 0.000000e+00  4.853869e-04 -5.332217e-06 0.000000e+00  4.942005e-04 -3.573960e-06 0.000000e+00  4.995038e-04 -1.763726e-06 0.000000e+00  5.012318e-04 8.074681e-08 0.000000e+00  4.993546e-04 1.940688e-06 0.000000e+00  4.938446e-04 3.795806e-06 0.000000e+00  4.847167e-04 5.624711e-06 0.000000e+00  4.720612e-04 7.405720e-06 0.000000e+00  4.560097e-04 9.116471e-06 0.000000e+00  4.367080e-04 1.073315e-05 0.000000e+00  4.143513e-04 1.223116e-05 0.000000e+00  3.892103e-04 1.358614e-05 0.000000e+00  3.616009e-04 1.477333e-05 0.000000e+00  3.318643e-04 1.576650e-05 0.000000e+00  3.003962e-04 1.653883e-05 0.000000e+00  2.676630e-04 1.706424e-05 0.000000e+00  2.341783e-04 1.731643e-05 0.000000e+00  2.004913e-04 1.726775e-05 0.000000e+00  1.672066e-04 1.689062e-05 0.000000e+00  1.349889e-04 1.615938e-05 0.000000e+00  1.045436e-04 1.505013e-05 0.000000e+00  7.660888e-05 1.354168e-05 0.000000e+00  5.195223e-05 1.162136e-05 0.000000e+00  3.133864e-05 9.295637e-06 0.000000e+00  1.547100e-05 6.609703e-06 0.000000e+00  4.879171e-06 3.694887e-06 0.000000e+00  -3.226756e-07 8.900179e-07 0.000000e+00  -9.589888e-07 -9.576370e-07 0.000000e+00  -2.364110e-10 -2.074273e-10 0.000000e+00  -4.490036e-11 1.388560e-11 0.000000e+00  7.487308e-07 -2.066304e-06 0.000000e+00  1.460834e-06 -1.432666e-06 0.000000e+00  5.754529e-07 8.181969e-07 0.000000e+00  -2.790757e-06 3.876455e-06 0.000000e+00  -9.065063e-06 7.214240e-06 0.000000e+00  -1.834997e-05 1.050148e-05 0.000000e+00  -3.052200e-05 1.353538e-05 0.000000e+00  -4.531145e-05 1.619392e-05 0.000000e+00  -6.235695e-05 1.840819e-05 0.000000e+00  -8.124526e-05 2.014553e-05 0.000000e+00  -1.015399e-04 2.139868e-05 0.000000e+00  -1.228019e-04 2.217873e-05 0.000000e+00  -1.446133e-04 2.251118e-05 0.000000e+00  -1.665497e-04 2.242669e-05 0.000000e+00  -1.882560e-04 2.196855e-05 0.000000e+00  -2.094245e-04 2.118439e-05 0.000000e+00  -2.297507e-04 2.012057e-05 0.000000e+00  -2.489679e-04 1.882534e-05 0.000000e+00  -2.669028e-04 1.735095e-05 0.000000e+00  -2.834352e-04 1.574841e-05 0.000000e+00  -2.984366e-04 1.406380e-05 0.000000e+00  -3.118163e-04 1.234136e-05 0.000000e+00  -3.235848e-04 1.062520e-05 0.000000e+00  -3.337961e-04 8.955504e-06 0.000000e+00  -3.424748e-04 7.366425e-06 0.000000e+00  -3.496729e-04 5.888535e-06 0.000000e+00  -3.555392e-04 4.549950e-06 0.000000e+00  -3.602489e-04 3.373915e-06 0.000000e+00  -3.639253e-04 2.377935e-06 0.000000e+00  -3.667047e-04 1.575553e-06 0.000000e+00  -3.688087e-04 9.767514e-07 0.000000e+00  -3.704670e-04 5.867742e-07 0.000000e+00  -3.718374e-04 4.063848e-07 0.000000e+00  -3.730769e-04 4.328482e-07 0.000000e+00  -3.744132e-04 6.596104e-07 0.000000e+00  -3.760656e-04 1.076214e-06 0.000000e+00  -3.781679e-04 1.669509e-06 0.000000e+00  -3.808413e-04 2.423817e-06 0.000000e+00  -3.842637e-04 3.319903e-06 0.000000e+00  -3.885916e-04 4.335831e-06 0.000000e+00  -3.938899e-04 5.448964e-06 0.000000e+00  -4.002034e-04 6.635337e-06 0.000000e+00  -4.076206e-04 7.867966e-06 0.000000e+00  -4.162013e-04 9.118513e-06 0.000000e+00  -4.259145e-04 1.035994e-05 0.000000e+00  -4.367069e-04 1.156517e-05 0.000000e+00  -4.485584e-04 1.270479e-05 0.000000e+00  -4.614175e-04 1.374943e-05 0.000000e+00  -4.751512e-04 1.467297e-05 0.000000e+00  -4.896062e-04 1.545049e-05 0.000000e+00  -5.046551e-04 1.605554e-05 0.000000e+00  -5.201418e-04 1.646311e-05 0.000000e+00  -5.358448e-04 1.665309e-05 0.000000e+00  -5.515291e-04 1.660777e-05 0.000000e+00  -5.669814e-04 1.630864e-05 0.000000e+00  -5.819670e-04 1.573976e-05 0.000000e+00  -5.962077e-04 1.489143e-05 0.000000e+00  -6.094232e-04 1.375717e-05 0.000000e+00  -6.213519e-04 1.233022e-05 0.000000e+00  -6.317226e-04 1.060710e-05 0.000000e+00  -6.402463e-04 8.591361e-06 0.000000e+00  -6.466450e-04 6.290111e-06 0.000000e+00  -6.506585e-04 3.710341e-06 0.000000e+00  -6.520299e-04 8.625239e-07 0.000000e+00  -6.505123e-04 -2.235696e-06 0.000000e+00  -6.458829e-04 -5.563266e-06 0.000000e+00  -6.379358e-04 -9.099522e-06 0.000000e+00  -6.264811e-04 -1.282060e-05 0.000000e+00  -6.113656e-04 -1.669596e-05 0.000000e+00  -5.924723e-04 -2.069234e-05 0.000000e+00  -5.696979e-04 -2.477747e-05 0.000000e+00  -5.429657e-04 -2.891664e-05 0.000000e+00  -5.122598e-04 -3.306959e-05 0.000000e+00  -4.776087e-04 -3.719444e-05 0.000000e+00  -4.390482e-04 -4.125124e-05 0.000000e+00  -3.966482e-04 -4.519885e-05 0.000000e+00  -3.505574e-04 -4.899221e-05 0.000000e+00  -3.009721e-04 -5.258617e-05 0.000000e+00  -2.480859e-04 -5.593879e-05 0.000000e+00  -1.921279e-04 -5.900852e-05 0.000000e+00  -1.334168e-04 -6.175209e-05 0.000000e+00  -7.231570e-05 -6.412806e-05 0.000000e+00  -9.169533e-06 -6.609968e-05 0.000000e+00  5.564689e-05 -6.763255e-05 0.000000e+00  1.216668e-04 -6.869311e-05 0.000000e+00  1.883907e-04 -6.925176e-05 0.000000e+00  2.553581e-04 -6.928510e-05 0.000000e+00  3.220917e-04 -6.877405e-05 0.000000e+00  3.880302e-04 -6.770297e-05 0.000000e+00  4.525984e-04 -6.606203e-05 0.000000e+00  5.152865e-04 -6.384865e-05 0.000000e+00  5.755870e-04 -6.106597e-05 0.000000e+00  6.329252e-04 -5.772252e-05 0.000000e+00  6.867374e-04 -5.383372e-05 0.000000e+00  7.365525e-04 -4.942206e-05 0.000000e+00  7.819250e-04 -4.451615e-05 0.000000e+00  8.223643e-04 -3.915085e-05 0.000000e+00  8.574171e-04 -3.336773e-05 0.000000e+00  8.867475e-04 -2.721407e-05 0.000000e+00  9.100666e-04 -2.074246e-05 0.000000e+00  9.270650e-04 -1.401170e-05 0.000000e+00  9.374937e-04 -7.086200e-06 0.000000e+00  9.412390e-04 -3.385333e-08 0.000000e+00  9.382516e-04 7.073556e-06 0.000000e+00  9.284846e-04 1.415842e-05 0.000000e+00  9.119704e-04 2.113897e-05 0.000000e+00  8.888846e-04 2.793237e-05 0.000000e+00  8.594794e-04 3.445336e-05 0.000000e+00  8.240308e-04 4.061119e-05 0.000000e+00  7.829065e-04 4.631226e-05 0.000000e+00  7.366168e-04 5.146431e-05 0.000000e+00  6.857543e-04 5.597380e-05 0.000000e+00  6.309547e-04 5.974208e-05 0.000000e+00  5.729523e-04 6.266906e-05 0.000000e+00  5.126120e-04 6.465842e-05 0.000000e+00  4.508798e-04 6.561440e-05 0.000000e+00  3.887583e-04 6.543801e-05 0.000000e+00  3.273422e-04 6.403318e-05 0.000000e+00  2.678241e-04 6.131495e-05 0.000000e+00  2.114517e-04 5.721028e-05 0.000000e+00  1.595020e-04 5.166344e-05 0.000000e+00  1.132679e-04 4.466045e-05 0.000000e+00  7.399218e-05 3.626974e-05 0.000000e+00  4.275160e-05 2.670854e-05 0.000000e+00  2.028133e-05 1.648628e-05 0.000000e+00  6.677181e-06 6.709974e-06 0.000000e+00  8.735941e-07 -3.304001e-07 0.000000e+00  -2.295060e-10 -2.765259e-10 0.000000e+00  9.943223e-12 -2.874865e-11 0.000000e+00  1.508837e-07 -2.629707e-06 0.000000e+00  -7.643840e-07 -5.522114e-07 0.000000e+00  -4.272429e-06 4.315720e-06 0.000000e+00  -1.124897e-05 1.063704e-05 0.000000e+00  -2.213032e-05 1.749110e-05 0.000000e+00  -3.700830e-05 2.426085e-05 0.000000e+00  -5.572024e-05 3.054230e-05 0.000000e+00  -7.792355e-05 3.607946e-05 0.000000e+00  -1.031554e-04 4.072027e-05 0.000000e+00  -1.308797e-04 4.438677e-05 0.000000e+00  -1.605236e-04 4.705489e-05 0.000000e+00  -1.915054e-04 4.874019e-05 0.000000e+00  -2.232673e-04 4.949008e-05 0.000000e+00  -2.552338e-04 4.936386e-05 0.000000e+00  -2.869255e-04 4.844887e-05 0.000000e+00  -3.179248e-04 4.684265e-05 0.000000e+00  -3.478113e-04 4.464068e-05 0.000000e+00  -3.762137e-04 4.194313e-05 0.000000e+00  -4.028925e-04 3.885943e-05 0.000000e+00  -4.276799e-04 3.549687e-05 0.000000e+00  -4.503910e-04 3.195253e-05 0.000000e+00  -4.708918e-04 2.831986e-05 0.000000e+00  -4.891927e-04 2.469252e-05 0.000000e+00  -5.053639e-04 2.115604e-05 0.000000e+00  -5.194297e-04 1.778308e-05 0.000000e+00  -5.314522e-04 1.463891e-05 0.000000e+00  -5.416324e-04 1.178374e-05 0.000000e+00  -5.502086e-04 9.267446e-06 0.000000e+00  -5.573417e-04 7.127640e-06 0.000000e+00  -5.632110e-04 5.393555e-06 0.000000e+00  -5.681194e-04 4.086870e-06 0.000000e+00  -5.723813e-04 3.219120e-06 0.000000e+00  -5.762066e-04 2.792241e-06 0.000000e+00  -5.798041e-04 2.800713e-06 0.000000e+00  -5.834861e-04 3.230808e-06 0.000000e+00  -5.875538e-04 4.060393e-06 0.000000e+00  -5.921842e-04 5.261586e-06 0.000000e+00  -5.975374e-04 6.801095e-06 0.000000e+00  -6.038571e-04 8.637922e-06 0.000000e+00  -6.113578e-04 1.072523e-05 0.000000e+00  -6.201213e-04 1.301477e-05 0.000000e+00  -6.302020e-04 1.545543e-05 0.000000e+00  -6.417200e-04 1.798953e-05 0.000000e+00  -6.547551e-04 2.055650e-05 0.000000e+00  -6.692565e-04 2.309865e-05 0.000000e+00  -6.851431e-04 2.555824e-05 0.000000e+00  -7.023839e-04 2.787246e-05 0.000000e+00  -7.209043e-04 2.997858e-05 0.000000e+00  -7.405126e-04 3.182099e-05 0.000000e+00  -7.609897e-04 3.334676e-05 0.000000e+00  -7.821562e-04 3.449956e-05 0.000000e+00  -8.037925e-04 3.522611e-05 0.000000e+00  -8.255857e-04 3.548393e-05 0.000000e+00  -8.472050e-04 3.523570e-05 0.000000e+00  -8.683525e-04 3.444228e-05 0.000000e+00  -8.887013e-04 3.306998e-05 0.000000e+00  -9.078621e-04 3.109880e-05 0.000000e+00  -9.254433e-04 2.851567e-05 0.000000e+00  -9.410824e-04 2.530671e-05 0.000000e+00  -9.544036e-04 2.146509e-05 0.000000e+00  -9.650057e-04 1.699927e-05 0.000000e+00  -9.725040e-04 1.192540e-05 0.000000e+00  -9.765402e-04 6.259103e-06 0.000000e+00  -9.767609e-04 2.347561e-08 0.000000e+00  -9.728270e-04 -6.742795e-06 0.000000e+00  -9.644345e-04 -1.399374e-05 0.000000e+00  -9.513028e-04 -2.168447e-05 0.000000e+00  -9.331745e-04 -2.976329e-05 0.000000e+00  -9.098442e-04 -3.816401e-05 0.000000e+00  -8.811582e-04 -4.681461e-05 0.000000e+00  -8.469812e-04 -5.564553e-05 0.000000e+00  -8.072150e-04 -6.458204e-05 0.000000e+00  -7.618483e-04 -7.353736e-05 0.000000e+00  -7.109321e-04 -8.242130e-05 0.000000e+00  -6.545262e-04 -9.114815e-05 0.000000e+00  -5.927373e-04 -9.962969e-05 0.000000e+00  -5.257847e-04 -1.077692e-04 0.000000e+00  -4.539544e-04 -1.154700e-04 0.000000e+00  -3.775256e-04 -1.226423e-04 0.000000e+00  -2.968263e-04 -1.291975e-04 0.000000e+00  -2.123126e-04 -1.350432e-04 0.000000e+00  -1.245022e-04 -1.400910e-04 0.000000e+00  -3.388349e-05 -1.442628e-04 0.000000e+00  5.901439e-05 -1.474855e-04 0.000000e+00  1.535309e-04 -1.496880e-04 0.000000e+00  2.489601e-04 -1.508076e-04 0.000000e+00  3.446556e-04 -1.507949e-04 0.000000e+00  4.399486e-04 -1.496102e-04 0.000000e+00  5.340495e-04 -1.472207e-04 0.000000e+00  6.261500e-04 -1.436063e-04 0.000000e+00  7.155384e-04 -1.387625e-04 0.000000e+00  8.015070e-04 -1.326968e-04 0.000000e+00  8.832511e-04 -1.254285e-04 0.000000e+00  9.599813e-04 -1.169914e-04 0.000000e+00  1.031044e-03 -1.074346e-04 0.000000e+00  1.095819e-03 -9.682022e-05 0.000000e+00  1.153625e-03 -8.522368e-05 0.0000