<?xml version="1.0"?>
<VTKFile type="UnstructuredGrid"  version="0.1"  >
<UnstructuredGrid>
<Piece  NumberOfPoints="16641" NumberOfCells="32768">
<Points>
<DataArray  type="Float32"  NumberOfComponents="3"  format="ascii">0 0 0  0.0078125 0 0  0.015625 0 0  0.0234375 0 0  0.03125 0 0  0.0390625 0 0  0.046875 0 0  0.0546875 0 0  0.0625 0 0  0.0703125 0 0  0.078125 0 0  0.0859375 0 0  0.09375 0 0  0.101562 0 0  0.109375 0 0  0.117188 0 0  0.125 0 0  0.132812 0 0  0.140625 0 0  0.148438 0 0  0.15625 0 0  0.164062 0 0  0.171875 0 0  0.179688 0 0  0.1875 0 0  0.195312 0 0  0.203125 0 0  0.210938 0 0  0.21875 0 0  0.226562 0 0  0.234375 0 0  0.242188 0 0  0.25 0 0  0.257812 0 0  0.265625 0 0  0.273438 0 0  0.28125 0 0  0.289062 0 0  0.296875 0 0  0.304688 0 0  0.3125 0 0  0.320312 0 0  0.328125 0 0  0.335938 0 0  0.34375 0 0  0.351562 0 0  0.359375 0 0  0.367188 0 0  0.375 0 0  0.382812 0 0  0.390625 0 0  0.398438 0 0  0.40625 0 0  0.414062 0 0  0.421875 0 0  0.429688 0 0  0.4375 0 0  0.445312 0 0  0.453125 0 0  0.460938 0 0  0.46875 0 0  0.476562 0 0  0.484375 0 0  0.492188 0 0  0.5 0 0  0.507812 0 0  0.515625 0 0  0.523438 0 0  0.53125 0 0  0.539062 0 0  0.546875 0 0  0.554688 0 0  0.5625 0 0  0.570312 0 0  0.578125 0 0  0.585938 0 0  0.59375 0 0  0.601562 0 0  0.609375 0 0  0.617188 0 0  0.625 0 0  0.632812 0 0  0.640625 0 0  0.648438 0 0  0.65625 0 0  0.664062 0 0  0.671875 0 0  0.679688 0 0  0.6875 0 0  0.695312 0 0  0.703125 0 0  0.710938 0 0  0.71875 0 0  0.726562 0 0  0.734375 0 0  0.742188 0 0  0.75 0 0  0.757812 0 0  0.765625 0 0  0.773438 0 0  0.78125 0 0  0.789062 0 0  0.796875 0 0  0.804688 0 0  0.8125 0 0  0.820312 0 0  0.828125 0 0  0.835938 0 0  0.84375 0 0  0.851562 0 0  0.859375 0 0  0.867188 0 0  0.875 0 0  0.882812 0 0  0.890625 0 0  0.898438 0 0  0.90625 0 0  0.914062 0 0  0.921875 0 0  0.929688 0 0  0.9375 0 0  0.945312 0 0  0.953125 0 0  0.960938 0 0  0.96875 0 0  0.976562 0 0  0.984375 0 0  0.992188 0 0  1 0 0  0 0.0078125 0  0.0078125 0.0078125 0  0.015625 0.0078125 0  0.0234375 0.0078125 0  0.03125 0.0078125 0  0.0390625 0.0078125 0  0.046875 0.0078125 0  0.0546875 0.0078125 0  0.0625 0.0078125 0  0.0703125 0.0078125 0  0.078125 0.0078125 0  0.0859375 0.0078125 0  0.09375 0.0078125 0  0.101562 0.0078125 0  0.109375 0.0078125 0  0.117188 0.0078125 0  0.125 0.0078125 0  0.132812 0.0078125 0  0.140625 0.0078125 0  0.148438 0.0078125 0  0.15625 0.0078125 0  0.164062 0.0078125 0  0.171875 0.0078125 0  0.179688 0.0078125 0  0.1875 0.0078125 0  0.195312 0.0078125 0  0.203125 0.0078125 0  0.210938 0.0078125 0  0.21875 0.0078125 0  0.226562 0.0078125 0  0.234375 0.0078125 0  0.242188 0.0078125 0  0.25 0.0078125 0  0.257812 0.0078125 0  0.265625 0.0078125 0  0.273438 0.0078125 0  0.28125 0.0078125 0  0.289062 0.0078125 0  0.296875 0.0078125 0  0.304688 0.0078125 0  0.3125 0.0078125 0  0.320312 0.0078125 0  0.328125 0.0078125 0  0.335938 0.0078125 0  0.34375 0.0078125 0  0.351562 0.0078125 0  0.359375 0.0078125 0  0.367188 0.0078125 0  0.375 0.0078125 0  0.382812 0.0078125 0  0.390625 0.0078125 0  0.398438 0.0078125 0  0.40625 0.0078125 0  0.414062 0.0078125 0  0.421875 0.0078125 0  0.429688 0.0078125 0  0.4375 0.0078125 0  0.445312 0.0078125 0  0.453125 0.0078125 0  0.460938 0.0078125 0  0.46875 0.0078125 0  0.476562 0.0078125 0  0.484375 0.0078125 0  0.492188 0.0078125 0  0.5 0.0078125 0  0.507812 0.0078125 0  0.515625 0.0078125 0  0.523438 0.0078125 0  0.53125 0.0078125 0  0.539062 0.0078125 0  0.546875 0.0078125 0  0.554688 0.0078125 0  0.5625 0.0078125 0  0.570312 0.0078125 0  0.578125 0.0078125 0  0.585938 0.0078125 0  0.59375 0.0078125 0  0.601562 0.0078125 0  0.609375 0.0078125 0  0.617188 0.0078125 0  0.625 0.0078125 0  0.632812 0.0078125 0  0.640625 0.0078125 0  0.648438 0.0078125 0  0.65625 0.0078125 0  0.664062 0.0078125 0  0.671875 0.0078125 0  0.679688 0.0078125 0  0.6875 0.0078125 0  0.695312 0.0078125 0  0.703125 0.0078125 0  0.710938 0.0078125 0  0.71875 0.0078125 0  0.726562 0.0078125 0  0.734375 0.0078125 0  0.742188 0.0078125 0  0.75 0.0078125 0  0.757812 0.0078125 0  0.765625 0.0078125 0  0.773438 0.0078125 0  0.78125 0.0078125 0  0.789062 0.0078125 0  0.796875 0.0078125 0  0.804688 0.0078125 0  0.8125 0.0078125 0  0.820312 0.0078125 0  0.828125 0.0078125 0  0.835938 0.0078125 0  0.84375 0.0078125 0  0.851562 0.0078125 0  0.859375 0.0078125 0  0.867188 0.0078125 0  0.875 0.0078125 0  0.882812 0.0078125 0  0.890625 0.0078125 0  0.898438 0.0078125 0  0.90625 0.0078125 0  0.914062 0.0078125 0  0.921875 0.0078125 0  0.929688 0.0078125 0  0.9375 0.0078125 0  0.945312 0.0078125 0  0.953125 0.0078125 0  0.960938 0.0078125 0  0.96875 0.0078125 0  0.976562 0.0078125 0  0.984375 0.0078125 0  0.992188 0.0078125 0  1 0.0078125 0  0 0.015625 0  0.0078125 0.015625 0  0.015625 0.015625 0  0.0234375 0.015625 0  0.03125 0.015625 0  0.0390625 0.015625 0  0.046875 0.015625 0  0.0546875 0.015625 0  0.0625 0.015625 0  0.0703125 0.015625 0  0.078125 0.015625 0  0.0859375 0.015625 0  0.09375 0.015625 0  0.101562 0.015625 0  0.109375 0.015625 0  0.117188 0.015625 0  0.125 0.015625 0  0.132812 0.015625 0  0.140625 0.015625 0  0.148438 0.015625 0  0.15625 0.015625 0  0.164062 0.015625 0  0.171875 0.015625 0  0.179688 0.015625 0  0.1875 0.015625 0  0.195312 0.015625 0  0.203125 0.015625 0  0.210938 0.015625 0  0.21875 0.015625 0  0.226562 0.015625 0  0.234375 0.015625 0  0.242188 0.015625 0  0.25 0.015625 0  0.257812 0.015625 0  0.265625 0.015625 0  0.273438 0.015625 0  0.28125 0.015625 0  0.289062 0.015625 0  0.296875 0.015625 0  0.304688 0.015625 0  0.3125 0.015625 0  0.320312 0.015625 0  0.328125 0.015625 0  0.335938 0.015625 0  0.34375 0.015625 0  0.351562 0.015625 0  0.359375 0.015625 0  0.367188 0.015625 0  0.375 0.015625 0  0.382812 0.015625 0  0.390625 0.015625 0  0.398438 0.015625 0  0.40625 0.015625 0  0.414062 0.015625 0  0.421875 0.015625 0  0.429688 0.015625 0  0.4375 0.015625 0  0.445312 0.015625 0  0.453125 0.015625 0  0.460938 0.015625 0  0.46875 0.015625 0  0.476562 0.015625 0  0.484375 0.015625 0  0.492188 0.015625 0  0.5 0.015625 0  0.507812 0.015625 0  0.515625 0.015625 0  0.523438 0.015625 0  0.53125 0.015625 0  0.539062 0.015625 0  0.546875 0.015625 0  0.554688 0.015625 0  0.5625 0.015625 0  0.570312 0.015625 0  0.578125 0.015625 0  0.585938 0.015625 0  0.59375 0.015625 0  0.601562 0.015625 0  0.609375 0.015625 0  0.617188 0.015625 0  0.625 0.015625 0  0.632812 0.015625 0  0.640625 0.015625 0  0.648438 0.015625 0  0.65625 0.015625 0  0.664062 0.015625 0  0.671875 0.015625 0  0.679688 0.015625 0  0.6875 0.015625 0  0.695312 0.015625 0  0.703125 0.015625 0  0.710938 0.015625 0  0.71875 0.015625 0  0.726562 0.015625 0  0.734375 0.015625 0  0.742188 0.015625 0  0.75 0.015625 0  0.757812 0.015625 0  0.765625 0.015625 0  0.773438 0.015625 0  0.78125 0.015625 0  0.789062 0.015625 0  0.796875 0.015625 0  0.804688 0.015625 0  0.8125 0.015625 0  0.820312 0.015625 0  0.828125 0.015625 0  0.835938 0.015625 0  0.84375 0.015625 0  0.851562 0.015625 0  0.859375 0.015625 0  0.867188 0.015625 0  0.875 0.015625 0  0.882812 0.015625 0  0.890625 0.015625 0  0.898438 0.015625 0  0.90625 0.015625 0  0.914062 0.015625 0  0.921875 0.015625 0  0.929688 0.015625 0  0.9375 0.015625 0  0.945312 0.015625 0  0.953125 0.015625 0  0.960938 0.015625 0  0.96875 0.015625 0  0.976562 0.015625 0  0.984375 0.015625 0  0.992188 0.015625 0  1 0.015625 0  0 0.0234375 0  0.0078125 0.0234375 0  0.015625 0.0234375 0  0.0234375 0.0234375 0  0.03125 0.0234375 0  0.0390625 0.0234375 0  0.046875 0.0234375 0  0.0546875 0.0234375 0  0.0625 0.0234375 0  0.0703125 0.0234375 0  0.078125 0.0234375 0  0.0859375 0.0234375 0  0.09375 0.0234375 0  0.101562 0.0234375 0  0.109375 0.0234375 0  0.117188 0.0234375 0  0.125 0.0234375 0  0.132812 0.0234375 0  0.140625 0.0234375 0  0.148438 0.0234375 0  0.15625 0.0234375 0  0.164062 0.0234375 0  0.171875 0.0234375 0  0.179688 0.0234375 0  0.1875 0.0234375 0  0.195312 0.0234375 0  0.203125 0.0234375 0  0.210938 0.0234375 0  0.21875 0.0234375 0  0.226562 0.0234375 0  0.234375 0.0234375 0  0.242188 0.0234375 0  0.25 0.0234375 0  0.257812 0.0234375 0  0.265625 0.0234375 0  0.273438 0.0234375 0  0.28125 0.0234375 0  0.289062 0.0234375 0  0.296875 0.0234375 0  0.304688 0.0234375 0  0.3125 0.0234375 0  0.320312 0.0234375 0  0.328125 0.0234375 0  0.335938 0.0234375 0  0.34375 0.0234375 0  0.351562 0.0234375 0  0.359375 0.0234375 0  0.367188 0.0234375 0  0.375 0.0234375 0  0.382812 0.0234375 0  0.390625 0.0234375 0  0.398438 0.0234375 0  0.40625 0.0234375 0  0.414062 0.0234375 0  0.421875 0.0234375 0  0.429688 0.0234375 0  0.4375 0.0234375 0  0.445312 0.0234375 0  0.453125 0.0234375 0  0.460938 0.0234375 0  0.46875 0.0234375 0  0.476562 0.0234375 0  0.484375 0.0234375 0  0.492188 0.0234375 0  0.5 0.0234375 0  0.507812 0.0234375 0  0.515625 0.0234375 0  0.523438 0.0234375 0  0.53125 0.0234375 0  0.539062 0.0234375 0  0.546875 0.0234375 0  0.554688 0.0234375 0  0.5625 0.0234375 0  0.570312 0.0234375 0  0.578125 0.0234375 0  0.585938 0.0234375 0  0.59375 0.0234375 0  0.601562 0.0234375 0  0.609375 0.0234375 0  0.617188 0.0234375 0  0.625 0.0234375 0  0.632812 0.0234375 0  0.640625 0.0234375 0  0.648438 0.0234375 0  0.65625 0.0234375 0  0.664062 0.0234375 0  0.671875 0.0234375 0  0.679688 0.0234375 0  0.6875 0.0234375 0  0.695312 0.0234375 0  0.703125 0.0234375 0  0.710938 0.0234375 0  0.71875 0.0234375 0  0.726562 0.0234375 0  0.734375 0.0234375 0  0.742188 0.0234375 0  0.75 0.0234375 0  0.757812 0.0234375 0  0.765625 0.0234375 0  0.773438 0.0234375 0  0.78125 0.0234375 0  0.789062 0.0234375 0  0.796875 0.0234375 0  0.804688 0.0234375 0  0.8125 0.0234375 0  0.820312 0.0234375 0  0.828125 0.0234375 0  0.835938 0.0234375 0  0.84375 0.0234375 0  0.851562 0.0234375 0  0.859375 0.0234375 0  0.867188 0.0234375 0  0.875 0.0234375 0  0.882812 0.0234375 0  0.890625 0.0234375 0  0.898438 0.0234375 0  0.90625 0.0234375 0  0.914062 0.0234375 0  0.921875 0.0234375 0  0.929688 0.0234375 0  0.9375 0.0234375 0  0.945312 0.0234
[...]
<PointData  Vectors="u"> 
<DataArray  type="Float32"  Name="u"  NumberOfComponents="3" format="ascii">1.049402e-10 -4.709634e-11 0.000000e+00  4.600852e-11 -1.243001e-11 0.000000e+00  1.024871e-11 1.689932e-11 0.000000e+00  -3.735990e-11 -8.985025e-12 0.000000e+00  -3.340750e-11 -6.665699e-11 0.000000e+00  1.941552e-11 -1.384992e-10 0.000000e+00  1.573540e-10 -2.202524e-10 0.000000e+00  3.894461e-10 -3.036529e-10 0.000000e+00  7.149430e-10 -3.823854e-10 0.000000e+00  1.127089e-09 -4.524104e-10 0.000000e+00  1.615391e-09 -5.113523e-10 0.000000e+00  2.167137e-09 -5.579670e-10 0.000000e+00  2.768993e-09 -5.918568e-10 0.000000e+00  3.405692e-09 -6.129908e-10 0.000000e+00  4.065122e-09 -6.221248e-10 0.000000e+00  4.733848e-09 -6.200271e-10 0.000000e+00  5.398245e-09 -6.075968e-10 0.000000e+00  6.047795e-09 -5.860904e-10 0.000000e+00  6.674592e-09 -5.569245e-10 0.000000e+00  7.269686e-09 -5.213679e-10 0.000000e+00  7.824148e-09 -4.806546e-10 0.000000e+00  8.333454e-09 -4.361849e-10 0.000000e+00  8.796030e-09 -3.893534e-10 0.000000e+00  9.208343e-09 -3.413465e-10 0.000000e+00  9.566654e-09 -2.932586e-10 0.000000e+00  9.872167e-09 -2.462117e-10 0.000000e+00  1.012879e-08 -2.012315e-10 0.000000e+00  1.033753e-08 -1.591534e-10 0.000000e+00  1.049881e-08 -1.207044e-10 0.000000e+00  1.061794e-08 -8.654625e-11 0.000000e+00  1.070244e-08 -5.720932e-11 0.000000e+00  1.075616e-08 -3.307844e-11 0.000000e+00  1.078190e-08 -1.443218e-11 0.000000e+00  1.078702e-08 -1.439668e-12 0.000000e+00  1.078048e-08 5.851843e-12 0.000000e+00  1.076703e-08 7.497817e-12 0.000000e+00  1.074995e-08 3.652794e-12 0.000000e+00  1.073658e-08 -5.425008e-12 0.000000e+00  1.073539e-08 -1.939592e-11 0.000000e+00  1.075030e-08 -3.784298e-11 0.000000e+00  1.078328e-08 -6.025714e-11 0.000000e+00  1.083999e-08 -8.607251e-11 0.000000e+00  1.092704e-08 -1.146992e-10 0.000000e+00  1.104610e-08 -1.454738e-10 0.000000e+00  1.119648e-08 -1.776479e-10 0.000000e+00  1.138111e-08 -2.104902e-10 0.000000e+00  1.160387e-08 -2.433067e-10 0.000000e+00  1.186338e-08 -2.753200e-10 0.000000e+00  1.215546e-08 -3.056798e-10 0.000000e+00  1.247978e-08 -3.336376e-10 0.000000e+00  1.283738e-08 -3.585379e-10 0.000000e+00  1.322351e-08 -3.796315e-10 0.000000e+00  1.363027e-08 -3.961206e-10 0.000000e+00  1.405431e-08 -4.073860e-10 0.000000e+00  1.449414e-08 -4.129402e-10 0.000000e+00  1.494202e-08 -4.122056e-10 0.000000e+00  1.538681e-08 -4.045949e-10 0.000000e+00  1.582286e-08 -3.897461e-10 0.000000e+00  1.624710e-08 -3.674402e-10 0.000000e+00  1.664971e-08 -3.373947e-10 0.000000e+00  1.701745e-08 -2.993682e-10 0.000000e+00  1.734367e-08 -2.533430e-10 0.000000e+00  1.762488e-08 -1.994209e-10 0.000000e+00  1.785063e-08 -1.376949e-10 0.000000e+00  1.800727e-08 -6.835830e-11 0.000000e+00  1.808864e-08 8.232128e-12 0.000000e+00  1.809222e-08 9.165859e-11 0.000000e+00  1.800856e-08 1.814267e-10 0.000000e+00  1.782564e-08 2.768801e-10 0.000000e+00  1.753933e-08 3.773162e-10 0.000000e+00  1.714926e-08 4.820577e-10 0.000000e+00  1.664875e-08 5.902398e-10 0.000000e+00  1.602939e-08 7.007777e-10 0.000000e+00  1.529045e-08 8.127047e-10 0.000000e+00  1.443457e-08 9.251816e-10 0.000000e+00  1.345937e-08 1.037057e-09 0.000000e+00  1.236182e-08 1.146918e-09 0.000000e+00  1.114551e-08 1.253660e-09 0.000000e+00  9.816529e-09 1.356411e-09 0.000000e+00  8.377836e-09 1.453873e-09 0.000000e+00  6.833065e-09 1.544466e-09 0.000000e+00  5.190414e-09 1.627119e-09 0.000000e+00  3.459269e-09 1.701088e-09 0.000000e+00  1.648323e-09 1.765118e-09 0.000000e+00  -2.317108e-10 1.817698e-09 0.000000e+00  -2.168495e-09 1.857996e-09 0.000000e+00  -4.150197e-09 1.885582e-09 0.000000e+00  -6.162909e-09 1.899486e-09 0.000000e+00  -8.189549e-09 1.898548e-09 0.000000e+00  -1.021503e-08 1.882403e-09 0.000000e+00  -1.222670e-08 1.851116e-09 0.000000e+00  -1.420705e-08 1.804249e-09 0.000000e+00  -1.613461e-08 1.741273e-09 0.000000e+00  -1.799388e-08 1.662472e-09 0.000000e+00  -1.977366e-08 1.568525e-09 0.000000e+00  -2.145545e-08 1.459702e-09 0.000000e+00  -2.301658e-08 1.336293e-09 0.000000e+00  -2.444398e-08 1.199294e-09 0.000000e+00  -2.573051e-08 1.049987e-09 0.000000e+00  -2.685991e-08 8.893956e-10 0.000000e+00  -2.781199e-08 7.186599e-10 0.000000e+00  -2.857908e-08 5.394080e-10 0.000000e+00  -2.916036e-08 3.533959e-10 0.000000e+00  -2.954498e-08 1.623078e-10 0.000000e+00  -2.971889e-08 -3.196080e-11 0.000000e+00  -2.968219e-08 -2.273218e-10 0.000000e+00  -2.944198e-08 -4.217315e-10 0.000000e+00  -2.899548e-08 -6.129932e-10 0.000000e+00  -2.833787e-08 -7.986208e-10 0.000000e+00  -2.747862e-08 -9.762507e-10 0.000000e+00  -2.643354e-08 -1.143712e-09 0.000000e+00  -2.520994e-08 -1.298456e-09 0.000000e+00  -2.381459e-08 -1.437603e-09 0.000000e+00  -2.226711e-08 -1.558686e-09 0.000000e+00  -2.059234e-08 -1.659539e-09 0.000000e+00  -1.880899e-08 -1.737458e-09 0.000000e+00  -1.693678e-08 -1.789462e-09 0.000000e+00  -1.500564e-08 -1.813237e-09 0.000000e+00  -1.304926e-08 -1.806874e-09 0.000000e+00  -1.109811e-08 -1.768003e-09 0.000000e+00  -9.184778e-09 -1.694307e-09 0.000000e+00  -7.348491e-09 -1.584580e-09 0.000000e+00  -5.630594e-09 -1.438736e-09 0.000000e+00  -4.071492e-09 -1.256852e-09 0.000000e+00  -2.713961e-09 -1.039640e-09 0.000000e+00  -1.606298e-09 -7.950445e-10 0.000000e+00  -7.983062e-10 -5.334272e-10 0.000000e+00  -3.521935e-10 -3.320242e-10 0.000000e+00  -2.606793e-10 -3.441037e-10 0.000000e+00  -5.613238e-11 1.784267e-11 0.000000e+00  7.740988e-07 -7.721463e-07 0.000000e+00  1.968063e-06 -6.862162e-07 0.000000e+00  2.402677e-06 -6.231611e-08 0.000000e+00  1.413057e-06 7.915696e-07 0.000000e+00  -1.263732e-06 1.711659e-06 0.000000e+00  -5.669235e-06 2.604394e-06 0.000000e+00  -1.170612e-05 3.416370e-06 0.000000e+00  -1.919670e-05 4.117639e-06 0.000000e+00  -2.791784e-05 4.692524e-06 0.000000e+00  -3.762349e-05 5.134679e-06 0.000000e+00  -4.806002e-05 5.444120e-06 0.000000e+00  -5.897699e-05 5.625335e-06 0.000000e+00  -7.013863e-05 5.686329e-06 0.000000e+00  -8.131014e-05 5.636190e-06 0.000000e+00  -9.229518e-05 5.487116e-06 0.000000e+00  -1.029249e-04 5.252280e-06 0.000000e+00  -1.130353e-04 4.944377e-06 0.000000e+00  -1.224840e-04 4.576461e-06 0.000000e+00  -1.311788e-04 4.162534e-06 0.000000e+00  -1.390566e-04 3.716202e-06 0.000000e+00  -1.460522e-04 3.249710e-06 0.000000e+00  -1.521209e-04 2.774751e-06 0.000000e+00  -1.572716e-04 2.302936e-06 0.000000e+00  -1.615364e-04 1.844836e-06 0.000000e+00  -1.649335e-04 1.409409e-06 0.000000e+00  -1.674957e-04 1.004654e-06 0.000000e+00  -1.693066e-04 6.379109e-07 0.000000e+00  -1.704636e-04 3.152602e-07 0.000000e+00  -1.710379e-04 4.127944e-08 0.000000e+00  -1.711079e-04 -1.804987e-07 0.000000e+00  -1.707957e-04 -3.474631e-07 0.000000e+00  -1.702281e-04 -4.582166e-07 0.000000e+00  -1.694950e-04 -5.125254e-07 0.000000e+00  -1.686855e-04 -5.110703e-07 0.000000e+00  -1.679254e-04 -4.555126e-07 0.000000e+00  -1.673362e-04 -3.485084e-07 0.000000e+00  -1.669949e-04 -1.934132e-07 0.000000e+00  -1.669719e-04 5.754633e-09 0.000000e+00  -1.673669e-04 2.440612e-07 0.000000e+00  -1.682682e-04 5.158800e-07 0.000000e+00  -1.697164e-04 8.153908e-07 0.000000e+00  -1.717416e-04 1.136411e-06 0.000000e+00  -1.743961e-04 1.471968e-06 0.000000e+00  -1.777170e-04 1.814728e-06 0.000000e+00  -1.816940e-04 2.157668e-06 0.000000e+00  -1.863048e-04 2.493718e-06 0.000000e+00  -1.915437e-04 2.815189e-06 0.000000e+00  -1.973884e-04 3.114380e-06 0.000000e+00  -2.037735e-04 3.384387e-06 0.000000e+00  -2.106224e-04 3.618595e-06 0.000000e+00  -2.178715e-04 3.809973e-06 0.000000e+00  -2.254414e-04 3.951832e-06 0.000000e+00  -2.332179e-04 4.038735e-06 0.000000e+00  -2.410793e-04 4.065845e-06 0.000000e+00  -2.489142e-04 4.028114e-06 0.000000e+00  -2.565993e-04 3.921142e-06 0.000000e+00  -2.639882e-04 3.742144e-06 0.000000e+00  -2.709323e-04 3.489164e-06 0.000000e+00  -2.772922e-04 3.160182e-06 0.000000e+00  -2.829231e-04 2.754026e-06 0.000000e+00  -2.876698e-04 2.271347e-06 0.000000e+00  -2.913827e-04 1.713737e-06 0.000000e+00  -2.939208e-04 1.082764e-06 0.000000e+00  -2.951444e-04 3.809109e-07 0.000000e+00  -2.949184e-04 -3.874752e-07 0.000000e+00  -2.931203e-04 -1.217140e-06 0.000000e+00  -2.896358e-04 -2.102909e-06 0.000000e+00  -2.843590e-04 -3.038765e-06 0.000000e+00  -2.772029e-04 -4.016947e-06 0.000000e+00  -2.680993e-04 -5.028946e-06 0.000000e+00  -2.569872e-04 -6.066486e-06 0.000000e+00  -2.438198e-04 -7.120635e-06 0.000000e+00  -2.285819e-04 -8.180991e-06 0.000000e+00  -2.112819e-04 -9.236681e-06 0.000000e+00  -1.919326e-04 -1.027729e-05 0.000000e+00  -1.705651e-04 -1.129206e-05 0.000000e+00  -1.472520e-04 -1.226918e-05 0.000000e+00  -1.220916e-04 -1.319674e-05 0.000000e+00  -9.518177e-05 -1.406364e-05 0.000000e+00  -6.663969e-05 -1.485882e-05 0.000000e+00  -3.663041e-05 -1.557075e-05 0.000000e+00  -5.343025e-06 -1.618834e-05 0.000000e+00  2.704144e-05 -1.670167e-05 0.000000e+00  6.032515e-05 -1.710145e-05 0.000000e+00  9.426142e-05 -1.737860e-05 0.000000e+00  1.285853e-04 -1.752505e-05 0.000000e+00  1.630510e-04 -1.753440e-05 0.000000e+00  1.974030e-04 -1.740141e-05 0.000000e+00  2.313412e-04 -1.712179e-05 0.000000e+00  2.645580e-04 -1.669282e-05 0.000000e+00  2.967790e-04 -1.611373e-05 0.000000e+00  3.277306e-04 -1.538535e-05 0.000000e+00  3.571050e-04 -1.450997e-05 0.000000e+00  3.845998e-04 -1.349176e-05 0.000000e+00  4.099616e-04 -1.233679e-05 0.000000e+00  4.329505e-04 -1.105279e-05 0.000000e+00  4.533048e-04 -9.649158e-06 0.000000e+00  4.707827e-04 -8.137064e-06 0.000000e+00  4.852050e-04 -6.529170e-06 0.000000e+00  4.964177e-04 -4.839516e-06 0.000000e+00  5.042580e-04 -3.083737e-06 0.000000e+00  5.085956e-04 -1.278877e-06 0.000000e+00  5.093718e-04 5.571597e-07 0.000000e+00  5.065625e-04 2.405504e-06 0.000000e+00  5.001465e-04 4.245833e-06 0.000000e+00  4.901446e-04 6.056793e-06 0.000000e+00  4.766535e-04 7.816804e-06 0.000000e+00  4.598104e-04 9.503675e-06 0.000000e+00  4.397665e-04 1.109380e-05 0.000000e+00  4.167221e-04 1.256283e-05 0.000000e+00  3.909522e-04 1.388671e-05 0.000000e+00  3.627766e-04 1.504101e-05 0.000000e+00  3.325396e-04 1.599982e-05 0.000000e+00  3.006393e-04 1.673671e-05 0.000000e+00  2.675440e-04 1.722597e-05 0.000000e+00  2.337681e-04 1.744176e-05 0.000000e+00  1.998607e-04 1.735689e-05 0.000000e+00  1.664254e-04 1.694430e-05 0.000000e+00  1.341250e-04 1.617898e-05 0.000000e+00  1.036611e-04 1.503784e-05 0.000000e+00  7.576673e-05 1.350067e-05 0.000000e+00  5.120189e-05 1.155613e-05 0.000000e+00  3.072125e-05 9.212439e-06 0.000000e+00  1.501356e-05 6.517227e-06 0.000000e+00  4.589698e-06 3.605106e-06 0.000000e+00  -4.614641e-07 8.188045e-07 0.000000e+00  -9.935019e-07 -9.921632e-07 0.000000e+00  -2.326331e-10 -2.058701e-10 0.000000e+00  -4.243884e-11 1.234704e-11 0.000000e+00  7.024817e-07 -1.975938e-06 0.000000e+00  1.304262e-06 -1.276267e-06 0.000000e+00  2.761425e-07 1.003122e-06 0.000000e+00  -3.237192e-06 4.057179e-06 0.000000e+00  -9.639901e-06 7.365874e-06 0.000000e+00  -1.901626e-05 1.060615e-05 0.000000e+00  -3.122938e-05 1.358071e-05 0.000000e+00  -4.600003e-05 1.617169e-05 0.000000e+00  -6.296047e-05 1.831331e-05 0.000000e+00  -8.169351e-05 1.997520e-05 0.000000e+00  -1.017605e-04 2.115184e-05 0.000000e+00  -1.227220e-04 2.185556e-05 0.000000e+00  -1.441602e-04 2.211277e-05 0.000000e+00  -1.656518e-04 2.195475e-05 0.000000e+00  -1.868434e-04 2.142517e-05 0.000000e+00  -2.074292e-04 2.057191e-05 0.000000e+00  -2.271069e-04 1.944140e-05 0.000000e+00  -2.456118e-04 1.808184e-05 0.000000e+00  -2.627729e-04 1.654538e-05 0.000000e+00  -2.784720e-04 1.488286e-05 0.000000e+00  -2.925826e-04 1.314014e-05 0.000000e+00  -3.050153e-04 1.136121e-05 0.000000e+00  -3.157824e-04 9.589952e-06 0.000000e+00  -3.249393e-04 7.866345e-06 0.000000e+00  -3.325114e-04 6.224326e-06 0.000000e+00  -3.385518e-04 4.694311e-06 0.000000e+00  -3.432100e-04 3.304322e-06 0.000000e+00  -3.466624e-04 2.077568e-06 0.000000e+00  -3.490327e-04 1.031570e-06 0.000000e+00  -3.504581e-04 1.799577e-07 0.000000e+00  -3.511611e-04 -4.671187e-07 0.000000e+00  -3.513730e-04 -9.041759e-07 0.000000e+00  -3.512527e-04 -1.130156e-06 0.000000e+00  -3.509588e-04 -1.147432e-06 0.000000e+00  -3.507213e-04 -9.621267e-07 0.000000e+00  -3.507623e-04 -5.842134e-07 0.000000e+00  -3.512184e-04 -2.632382e-08 0.000000e+00  -3.522141e-04 6.964174e-07 0.000000e+00  -3.539316e-04 1.565358e-06 0.000000e+00  -3.565322e-04 2.559151e-06 0.000000e+00  -3.600857e-04 3.655735e-06 0.000000e+00  -3.646424e-04 4.831699e-06 0.000000e+00  -3.702972e-04 6.060577e-06 0.000000e+00  -3.771167e-04 7.314493e-06 0.000000e+00  -3.850767e-04 8.566803e-06 0.000000e+00  -3.941310e-04 9.790734e-06 0.000000e+00  -4.042674e-04 1.095710e-05 0.000000e+00  -4.154424e-04 1.203666e-05 0.000000e+00  -4.275303e-04 1.300330e-05 0.000000e+00  -4.403857e-04 1.383205e-05 0.000000e+00  -4.538888e-04 1.449628e-05 0.000000e+00  -4.678913e-04 1.497069e-05 0.000000e+00  -4.821785e-04 1.523486e-05 0.000000e+00  -4.965222e-04 1.527064e-05 0.000000e+00  -5.107155e-04 1.505906e-05 0.000000e+00  -5.245299e-04 1.458361e-05 0.000000e+00  -5.376923e-04 1.383402e-05 0.000000e+00  -5.499270e-04 1.280321e-05 0.000000e+00  -5.609768e-04 1.148377e-05 0.000000e+00  -5.705742e-04 9.871526e-06 0.000000e+00  -5.784330e-04 7.969363e-06 0.000000e+00  -5.842773e-04 5.783721e-06 0.000000e+00  -5.878488e-04 3.320876e-06 0.000000e+00  -5.888915e-04 5.905869e-07 0.000000e+00  -5.871586e-04 -2.390183e-06 0.000000e+00  -5.824273e-04 -5.601056e-06 0.000000e+00  -5.744904e-04 -9.022057e-06 0.000000e+00  -5.631565e-04 -1.262999e-05 0.000000e+00  -5.482702e-04 -1.639494e-05 0.000000e+00  -5.297116e-04 -2.028420e-05 0.000000e+00  -5.073741e-04 -2.426607e-05 0.000000e+00  -4.811772e-04 -2.830633e-05 0.000000e+00  -4.511007e-04 -3.236512e-05 0.000000e+00  -4.171686e-04 -3.640087e-05 0.000000e+00  -3.794119e-04 -4.037388e-05 0.000000e+00  -3.378954e-04 -4.424312e-05 0.000000e+00  -2.927627e-04 -4.796352e-05 0.000000e+00  -2.442053e-04 -5.148981e-05 0.000000e+00  -1.924119e-04 -5.477981e-05 0.000000e+00  -1.376068e-04 -5.779162e-05 0.000000e+00  -8.010469e-05 -6.048150e-05 0.000000e+00  -2.026521e-05 -6.280743e-05 0.000000e+00  4.157012e-05 -6.473205e-05 0.000000e+00  1.050292e-04 -6.622032e-05 0.000000e+00  1.696473e-04 -6.723801e-05 0.000000e+00  2.349258e-04 -6.775492e-05 0.000000e+00  3.004057e-04 -6.774712e-05 0.000000e+00  3.656103e-04 -6.719517e-05 0.000000e+00  4.299785e-04 -6.608316e-05 0.000000e+00  4.929351e-04 -6.440125e-05 0.000000e+00  5.539706e-04 -6.214704e-05 0.000000e+00  6.125785e-04 -5.932409e-05 0.000000e+00  6.681850e-04 -5.594158e-05 0.000000e+00  7.202280e-04 -5.201576e-05 0.000000e+00  7.682394e-04 -4.757017e-05 0.000000e+00  8.117777e-04 -4.263460e-05 0.000000e+00  8.503571e-04 -3.724515e-05 0.000000e+00  8.835299e-04 -3.144469e-05 0.000000e+00  9.109679e-04 -2.528178e-05 0.000000e+00  9.323910e-04 -1.881014e-05 0.000000e+00  9.474988e-04 -1.208962e-05 0.000000e+00  9.560525e-04 -5.185470e-06 0.000000e+00  9.579494e-04 1.833819e-06 0.000000e+00  9.531520e-04 8.896106e-06 0.000000e+00  9.416246e-04 1.592369e-05 0.000000e+00  9.234110e-04 2.283493e-05 0.000000e+00  8.986983e-04 2.954743e-05 0.000000e+00  8.677495e-04 3.597656e-05 0.000000e+00  8.308505e-04 4.203237e-05 0.000000e+00  7.883781e-04 4.762225e-05 0.000000e+00  7.408508e-04 5.265507e-05 0.000000e+00  6.888683e-04 5.703857e-05 0.000000e+00  6.330720e-04 6.067539e-05 0.000000e+00  5.742005e-04 6.346689e-05 0.000000e+00  5.131217e-04 6.531829e-05 0.000000e+00  4.507831e-04 6.613553e-05 0.000000e+00  3.881869e-04 6.582144e-05 0.000000e+00  3.264253e-04 6.428203e-05 0.000000e+00  2.666870e-04 6.143486e-05 0.000000e+00  2.102124e-04 5.720985e-05 0.000000e+00  1.582685e-04 5.155497e-05 0.000000e+00  1.121344e-04 4.446093e-05 0.000000e+00  7.303457e-05 3.600222e-05 0.000000e+00  4.202165e-05 2.640385e-05 0.000000e+00  1.980045e-05 1.618485e-05 0.000000e+00  6.429669e-06 6.462438e-06 0.000000e+00  8.024240e-07 -4.691793e-07 0.000000e+00  -2.252954e-10 -2.734372e-10 0.000000e+00  1.067415e-11 -2.843541e-11 0.000000e+00  9.460247e-08 -2.444383e-06 0.000000e+00  -9.498498e-07 -2.529602e-07 0.000000e+00  -4.615050e-06 4.657723e-06 0.000000e+00  -1.174305e-05 1.096105e-05 0.000000e+00  -2.274296e-05 1.774951e-05 0.000000e+00  -3.768483e-05 2.441820e-05 0.000000e+00  -5.638924e-05 3.057318e-05 0.000000e+00  -7.850129e-05 3.596648e-05 0.000000e+00  -1.035494e-04 4.045223e-05 0.000000e+00  -1.309921e-04 4.395722e-05 0.000000e+00  -1.602531e-04 4.646098e-05 0.000000e+00  -1.907493e-04 4.798178e-05 0.000000e+00  -2.219232e-04 4.856897e-05 0.000000e+00  -2.532002e-04 4.828325e-05 0.000000e+00  -2.841029e-04 4.721288e-05 0.000000e+00  -3.142163e-04 4.545598e-05 0.000000e+00  -3.431225e-04 4.310825e-05 0.000000e+00  -3.704531e-04 4.026984e-05 0.000000e+00  -3.959713e-04 3.705003e-05 0.000000e+00  -4.195127e-04 3.355581e-05 0.000000e+00  -4.408945e-04 2.988381e-05 0.000000e+00  -4.599851e-04 2.612706e-05 0.000000e+00  -4.767971e-04 2.237874e-05 0.000000e+00  -4.914029e-04 1.872397e-05 0.000000e+00  -5.038283e-04 1.523501e-05 0.000000e+00  -5.141368e-04 1.197682e-05 0.000000e+00  -5.225310e-04 9.009439e-06 0.000000e+00  -5.292507e-04 6.382685e-06 0.000000e+00  -5.344580e-04 4.134226e-06 0.000000e+00  -5.383334e-04 2.293491e-06 0.000000e+00  -5.411817e-04 8.825343e-07 0.000000e+00  -5.433197e-04 -8.659467e-08 0.000000e+00  -5.449591e-04 -6.113216e-07 0.000000e+00  -5.463112e-04 -6.963964e-07 0.000000e+00  -5.476920e-04 -3.546236e-07 0.000000e+00  -5.494067e-04 3.928909e-07 0.000000e+00  -5.516366e-04 1.519362e-06 0.000000e+00  -5.545466e-04 2.992669e-06 0.000000e+00  -5.583869e-04 4.773041e-06 0.000000e+00  -5.633786e-04 6.814883e-06 0.000000e+00  -5.696108e-04 9.071138e-06 0.000000e+00  -5.771457e-04 1.149187e-05 0.000000e+00  -5.861125e-04 1.402049e-05 0.000000e+00  -5.966006e-04 1.659735e-05 0.000000e+00  -6.085689e-04 1.916560e-05 0.000000e+00  -6.219461e-04 2.166814e-05 0.000000e+00  -6.367124e-04 2.404261e-05 0.000000e+00  -6.528043e-04 2.622653e-05 0.000000e+00  -6.700406e-04 2.816431e-05 0.000000e+00  -6.882128e-04 2.980289e-05 0.000000e+00  -7.071525e-04 3.108554e-05 0.000000e+00  -7.266508e-04 3.195840e-05 0.000000e+00  -7.464044e-04 3.237828e-05 0.000000e+00  -7.660919e-04 3.230697e-05 0.000000e+00  -7.854245e-04 3.170429e-05 0.000000e+00  -8.040836e-04 3.053538e-05 0.000000e+00  -8.216872e-04 2.877903e-05 0.000000e+00  -8.378504e-04 2.642088e-05 0.000000e+00  -8.522168e-04 2.344565e-05 0.000000e+00  -8.644156e-04 1.984505e-05 0.000000e+00  -8.740497e-04 1.562613e-05 0.000000e+00  -8.807375e-04 1.080359e-05 0.000000e+00  -8.841232e-04 5.391541e-06 0.000000e+00  -8.838550e-04 -5.884524e-07 0.000000e+00  -8.795941e-04 -7.099153e-06 0.000000e+00  -8.710360e-04 -1.409602e-05 0.000000e+00  -8.578992e-04 -2.153566e-05 0.000000e+00  -8.399238e-04 -2.936777e-05 0.000000e+00  -8.169017e-04 -3.752747e-05 0.000000e+00  -7.886754e-04 -4.594398e-05 0.000000e+00  -7.551049e-04 -5.454889e-05 0.000000e+00  -7.160871e-04 -6.326854e-05 0.000000e+00  -6.716047e-04 -7.201698e-05 0.000000e+00  -6.217028e-04 -8.070466e-05 0.000000e+00  -5.664346e-04 -8.924640e-05 0.000000e+00  -5.058999e-04 -9.755424e-05 0.000000e+00  -4.403112e-04 -1.055314e-04 0.000000e+00  -3.699480e-04 -1.130810e-04 0.000000e+00  -2.950828e-04 -1.201127e-04 0.000000e+00  -2.160370e-04 -1.265373e-04 0.000000e+00  -1.332615e-04 -1.322613e-04 0.000000e+00  -4.726898e-05 -1.371951e-04 0.000000e+00  4.145676e-05 -1.412594e-04 0.000000e+00  1.323904e-04 -1.443799e-04 0.000000e+00  2.248741e-04 -1.464840e-04 0.000000e+00  3.182037e-04 -1.475078e-04 0.000000e+00  4.117348e-04 -1.474010e-04 0.000000e+00  5.047998e-04 -1.461230e-04 0.000000e+00  5.966095e-04 -1.436406e-04 0.000000e+00  6.863564e-04 -1.399338e-04 0.000000e+00  7.733295e-04 -1.349984e-04 0.000000e+00  8.568233e-04 -1.288430e-04 0.000000e+00  9.360345e-04 -1.214882e-04 0.000000e+00  1.010177e-03 -1.129697e-04 0.000000e+00  1.078601e-03 -1.033387e-04 0.000000e+00  1.140695e-03 -9.265991e-05 0.000000e+00  1.195780e-03 -8.10113