<?xml version="1.0"?>
<VTKFile type="UnstructuredGrid"  version="0.1"  >
<UnstructuredGrid>
<Piece  NumberOfPoints="16641" NumberOfCells="32768">
<Points>
<DataArray  type="Float32"  NumberOfComponents="3"  format="ascii">0 0 0  0.0078125 0 0  0.015625 0 0  0.0234375 0 0  0.03125 0 0  0.0390625 0 0  0.046875 0 0  0.0546875 0 0  0.0625 0 0  0.0703125 0 0  0.078125 0 0  0.0859375 0 0  0.09375 0 0  0.101562 0 0  0.109375 0 0  0.117188 0 0  0.125 0 0  0.132812 0 0  0.140625 0 0  0.148438 0 0  0.15625 0 0  0.164062 0 0  0.171875 0 0  0.179688 0 0  0.1875 0 0  0.195312 0 0  0.203125 0 0  0.210938 0 0  0.21875 0 0  0.226562 0 0  0.234375 0 0  0.242188 0 0  0.25 0 0  0.257812 0 0  0.265625 0 0  0.273438 0 0  0.28125 0 0  0.289062 0 0  0.296875 0 0  0.304688 0 0  0.3125 0 0  0.320312 0 0  0.328125 0 0  0.335938 0 0  0.34375 0 0  0.351562 0 0  0.359375 0 0  0.367188 0 0  0.375 0 0  0.382812 0 0  0.390625 0 0  0.398438 0 0  0.40625 0 0  0.414062 0 0  0.421875 0 0  0.429688 0 0  0.4375 0 0  0.445312 0 0  0.453125 0 0  0.460938 0 0  0.46875 0 0  0.476562 0 0  0.484375 0 0  0.492188 0 0  0.5 0 0  0.507812 0 0  0.515625 0 0  0.523438 0 0  0.53125 0 0  0.539062 0 0  0.546875 0 0  0.554688 0 0  0.5625 0 0  0.570312 0 0  0.578125 0 0  0.585938 0 0  0.59375 0 0  0.601562 0 0  0.609375 0 0  0.617188 0 0  0.625 0 0  0.632812 0 0  0.640625 0 0  0.648438 0 0  0.65625 0 0  0.664062 0 0  0.671875 0 0  0.679688 0 0  0.6875 0 0  0.695312 0 0  0.703125 0 0  0.710938 0 0  0.71875 0 0  0.726562 0 0  0.734375 0 0  0.742188 0 0  0.75 0 0  0.757812 0 0  0.765625 0 0  0.773438 0 0  0.78125 0 0  0.789062 0 0  0.796875 0 0  0.804688 0 0  0.8125 0 0  0.820312 0 0  0.828125 0 0  0.835938 0 0  0.84375 0 0  0.851562 0 0  0.859375 0 0  0.867188 0 0  0.875 0 0  0.882812 0 0  0.890625 0 0  0.898438 0 0  0.90625 0 0  0.914062 0 0  0.921875 0 0  0.929688 0 0  0.9375 0 0  0.945312 0 0  0.953125 0 0  0.960938 0 0  0.96875 0 0  0.976562 0 0  0.984375 0 0  0.992188 0 0  1 0 0  0 0.0078125 0  0.0078125 0.0078125 0  0.015625 0.0078125 0  0.0234375 0.0078125 0  0.03125 0.0078125 0  0.0390625 0.0078125 0  0.046875 0.0078125 0  0.0546875 0.0078125 0  0.0625 0.0078125 0  0.0703125 0.0078125 0  0.078125 0.0078125 0  0.0859375 0.0078125 0  0.09375 0.0078125 0  0.101562 0.0078125 0  0.109375 0.0078125 0  0.117188 0.0078125 0  0.125 0.0078125 0  0.132812 0.0078125 0  0.140625 0.0078125 0  0.148438 0.0078125 0  0.15625 0.0078125 0  0.164062 0.0078125 0  0.171875 0.0078125 0  0.179688 0.0078125 0  0.1875 0.0078125 0  0.195312 0.0078125 0  0.203125 0.0078125 0  0.210938 0.0078125 0  0.21875 0.0078125 0  0.226562 0.0078125 0  0.234375 0.0078125 0  0.242188 0.0078125 0  0.25 0.0078125 0  0.257812 0.0078125 0  0.265625 0.0078125 0  0.273438 0.0078125 0  0.28125 0.0078125 0  0.289062 0.0078125 0  0.296875 0.0078125 0  0.304688 0.0078125 0  0.3125 0.0078125 0  0.320312 0.0078125 0  0.328125 0.0078125 0  0.335938 0.0078125 0  0.34375 0.0078125 0  0.351562 0.0078125 0  0.359375 0.0078125 0  0.367188 0.0078125 0  0.375 0.0078125 0  0.382812 0.0078125 0  0.390625 0.0078125 0  0.398438 0.0078125 0  0.40625 0.0078125 0  0.414062 0.0078125 0  0.421875 0.0078125 0  0.429688 0.0078125 0  0.4375 0.0078125 0  0.445312 0.0078125 0  0.453125 0.0078125 0  0.460938 0.0078125 0  0.46875 0.0078125 0  0.476562 0.0078125 0  0.484375 0.0078125 0  0.492188 0.0078125 0  0.5 0.0078125 0  0.507812 0.0078125 0  0.515625 0.0078125 0  0.523438 0.0078125 0  0.53125 0.0078125 0  0.539062 0.0078125 0  0.546875 0.0078125 0  0.554688 0.0078125 0  0.5625 0.0078125 0  0.570312 0.0078125 0  0.578125 0.0078125 0  0.585938 0.0078125 0  0.59375 0.0078125 0  0.601562 0.0078125 0  0.609375 0.0078125 0  0.617188 0.0078125 0  0.625 0.0078125 0  0.632812 0.0078125 0  0.640625 0.0078125 0  0.648438 0.0078125 0  0.65625 0.0078125 0  0.664062 0.0078125 0  0.671875 0.0078125 0  0.679688 0.0078125 0  0.6875 0.0078125 0  0.695312 0.0078125 0  0.703125 0.0078125 0  0.710938 0.0078125 0  0.71875 0.0078125 0  0.726562 0.0078125 0  0.734375 0.0078125 0  0.742188 0.0078125 0  0.75 0.0078125 0  0.757812 0.0078125 0  0.765625 0.0078125 0  0.773438 0.0078125 0  0.78125 0.0078125 0  0.789062 0.0078125 0  0.796875 0.0078125 0  0.804688 0.0078125 0  0.8125 0.0078125 0  0.820312 0.0078125 0  0.828125 0.0078125 0  0.835938 0.0078125 0  0.84375 0.0078125 0  0.851562 0.0078125 0  0.859375 0.0078125 0  0.867188 0.0078125 0  0.875 0.0078125 0  0.882812 0.0078125 0  0.890625 0.0078125 0  0.898438 0.0078125 0  0.90625 0.0078125 0  0.914062 0.0078125 0  0.921875 0.0078125 0  0.929688 0.0078125 0  0.9375 0.0078125 0  0.945312 0.0078125 0  0.953125 0.0078125 0  0.960938 0.0078125 0  0.96875 0.0078125 0  0.976562 0.0078125 0  0.984375 0.0078125 0  0.992188 0.0078125 0  1 0.0078125 0  0 0.015625 0  0.0078125 0.015625 0  0.015625 0.015625 0  0.0234375 0.015625 0  0.03125 0.015625 0  0.0390625 0.015625 0  0.046875 0.015625 0  0.0546875 0.015625 0  0.0625 0.015625 0  0.0703125 0.015625 0  0.078125 0.015625 0  0.0859375 0.015625 0  0.09375 0.015625 0  0.101562 0.015625 0  0.109375 0.015625 0  0.117188 0.015625 0  0.125 0.015625 0  0.132812 0.015625 0  0.140625 0.015625 0  0.148438 0.015625 0  0.15625 0.015625 0  0.164062 0.015625 0  0.171875 0.015625 0  0.179688 0.015625 0  0.1875 0.015625 0  0.195312 0.015625 0  0.203125 0.015625 0  0.210938 0.015625 0  0.21875 0.015625 0  0.226562 0.015625 0  0.234375 0.015625 0  0.242188 0.015625 0  0.25 0.015625 0  0.257812 0.015625 0  0.265625 0.015625 0  0.273438 0.015625 0  0.28125 0.015625 0  0.289062 0.015625 0  0.296875 0.015625 0  0.304688 0.015625 0  0.3125 0.015625 0  0.320312 0.015625 0  0.328125 0.015625 0  0.335938 0.015625 0  0.34375 0.015625 0  0.351562 0.015625 0  0.359375 0.015625 0  0.367188 0.015625 0  0.375 0.015625 0  0.382812 0.015625 0  0.390625 0.015625 0  0.398438 0.015625 0  0.40625 0.015625 0  0.414062 0.015625 0  0.421875 0.015625 0  0.429688 0.015625 0  0.4375 0.015625 0  0.445312 0.015625 0  0.453125 0.015625 0  0.460938 0.015625 0  0.46875 0.015625 0  0.476562 0.015625 0  0.484375 0.015625 0  0.492188 0.015625 0  0.5 0.015625 0  0.507812 0.015625 0  0.515625 0.015625 0  0.523438 0.015625 0  0.53125 0.015625 0  0.539062 0.015625 0  0.546875 0.015625 0  0.554688 0.015625 0  0.5625 0.015625 0  0.570312 0.015625 0  0.578125 0.015625 0  0.585938 0.015625 0  0.59375 0.015625 0  0.601562 0.015625 0  0.609375 0.015625 0  0.617188 0.015625 0  0.625 0.015625 0  0.632812 0.015625 0  0.640625 0.015625 0  0.648438 0.015625 0  0.65625 0.015625 0  0.664062 0.015625 0  0.671875 0.015625 0  0.679688 0.015625 0  0.6875 0.015625 0  0.695312 0.015625 0  0.703125 0.015625 0  0.710938 0.015625 0  0.71875 0.015625 0  0.726562 0.015625 0  0.734375 0.015625 0  0.742188 0.015625 0  0.75 0.015625 0  0.757812 0.015625 0  0.765625 0.015625 0  0.773438 0.015625 0  0.78125 0.015625 0  0.789062 0.015625 0  0.796875 0.015625 0  0.804688 0.015625 0  0.8125 0.015625 0  0.820312 0.015625 0  0.828125 0.015625 0  0.835938 0.015625 0  0.84375 0.015625 0  0.851562 0.015625 0  0.859375 0.015625 0  0.867188 0.015625 0  0.875 0.015625 0  0.882812 0.015625 0  0.890625 0.015625 0  0.898438 0.015625 0  0.90625 0.015625 0  0.914062 0.015625 0  0.921875 0.015625 0  0.929688 0.015625 0  0.9375 0.015625 0  0.945312 0.015625 0  0.953125 0.015625 0  0.960938 0.015625 0  0.96875 0.015625 0  0.976562 0.015625 0  0.984375 0.015625 0  0.992188 0.015625 0  1 0.015625 0  0 0.0234375 0  0.0078125 0.0234375 0  0.015625 0.0234375 0  0.0234375 0.0234375 0  0.03125 0.0234375 0  0.0390625 0.0234375 0  0.046875 0.0234375 0  0.0546875 0.0234375 0  0.0625 0.0234375 0  0.0703125 0.0234375 0  0.078125 0.0234375 0  0.0859375 0.0234375 0  0.09375 0.0234375 0  0.101562 0.0234375 0  0.109375 0.0234375 0  0.117188 0.0234375 0  0.125 0.0234375 0  0.132812 0.0234375 0  0.140625 0.0234375 0  0.148438 0.0234375 0  0.15625 0.0234375 0  0.164062 0.0234375 0  0.171875 0.0234375 0  0.179688 0.0234375 0  0.1875 0.0234375 0  0.195312 0.0234375 0  0.203125 0.0234375 0  0.210938 0.0234375 0  0.21875 0.0234375 0  0.226562 0.0234375 0  0.234375 0.0234375 0  0.242188 0.0234375 0  0.25 0.0234375 0  0.257812 0.0234375 0  0.265625 0.0234375 0  0.273438 0.0234375 0  0.28125 0.0234375 0  0.289062 0.0234375 0  0.296875 0.0234375 0  0.304688 0.0234375 0  0.3125 0.0234375 0  0.320312 0.0234375 0  0.328125 0.0234375 0  0.335938 0.0234375 0  0.34375 0.0234375 0  0.351562 0.0234375 0  0.359375 0.0234375 0  0.367188 0.0234375 0  0.375 0.0234375 0  0.382812 0.0234375 0  0.390625 0.0234375 0  0.398438 0.0234375 0  0.40625 0.0234375 0  0.414062 0.0234375 0  0.421875 0.0234375 0  0.429688 0.0234375 0  0.4375 0.0234375 0  0.445312 0.0234375 0  0.453125 0.0234375 0  0.460938 0.0234375 0  0.46875 0.0234375 0  0.476562 0.0234375 0  0.484375 0.0234375 0  0.492188 0.0234375 0  0.5 0.0234375 0  0.507812 0.0234375 0  0.515625 0.0234375 0  0.523438 0.0234375 0  0.53125 0.0234375 0  0.539062 0.0234375 0  0.546875 0.0234375 0  0.554688 0.0234375 0  0.5625 0.0234375 0  0.570312 0.0234375 0  0.578125 0.0234375 0  0.585938 0.0234375 0  0.59375 0.0234375 0  0.601562 0.0234375 0  0.609375 0.0234375 0  0.617188 0.0234375 0  0.625 0.0234375 0  0.632812 0.0234375 0  0.640625 0.0234375 0  0.648438 0.0234375 0  0.65625 0.0234375 0  0.664062 0.0234375 0  0.671875 0.0234375 0  0.679688 0.0234375 0  0.6875 0.0234375 0  0.695312 0.0234375 0  0.703125 0.0234375 0  0.710938 0.0234375 0  0.71875 0.0234375 0  0.726562 0.0234375 0  0.734375 0.0234375 0  0.742188 0.0234375 0  0.75 0.0234375 0  0.757812 0.0234375 0  0.765625 0.0234375 0  0.773438 0.0234375 0  0.78125 0.0234375 0  0.789062 0.0234375 0  0.796875 0.0234375 0  0.804688 0.0234375 0  0.8125 0.0234375 0  0.820312 0.0234375 0  0.828125 0.0234375 0  0.835938 0.0234375 0  0.84375 0.0234375 0  0.851562 0.0234375 0  0.859375 0.0234375 0  0.867188 0.0234375 0  0.875 0.0234375 0  0.882812 0.0234375 0  0.890625 0.0234375 0  0.898438 0.0234375 0  0.90625 0.0234375 0  0.914062 0.0234375 0  0.921875 0.0234375 0  0.929688 0.0234375 0  0.9375 0.0234375 0  0.945312 0.0234
[...]
<PointData  Vectors="u"> 
<DataArray  type="Float32"  Name="u"  NumberOfComponents="3" format="ascii">8.611151e-11 -3.541588e-11 0.000000e+00  3.412871e-11 -7.524275e-12 0.000000e+00  1.138350e-11 5.451229e-12 0.000000e+00  -2.609756e-11 -2.264817e-11 0.000000e+00  -8.485312e-12 -8.092724e-11 0.000000e+00  6.304111e-11 -1.518519e-10 0.000000e+00  2.185419e-10 -2.300765e-10 0.000000e+00  4.640172e-10 -3.078660e-10 0.000000e+00  7.965434e-10 -3.794990e-10 0.000000e+00  1.207858e-09 -4.414341e-10 0.000000e+00  1.686484e-09 -4.916807e-10 0.000000e+00  2.219119e-09 -5.292847e-10 0.000000e+00  2.792128e-09 -5.540594e-10 0.000000e+00  3.390186e-09 -5.661435e-10 0.000000e+00  4.001227e-09 -5.663862e-10 0.000000e+00  4.612001e-09 -5.556350e-10 0.000000e+00  5.209214e-09 -5.348550e-10 0.000000e+00  5.782677e-09 -5.053255e-10 0.000000e+00  6.324716e-09 -4.684503e-10 0.000000e+00  6.826744e-09 -4.254988e-10 0.000000e+00  7.280350e-09 -3.777148e-10 0.000000e+00  7.681317e-09 -3.264685e-10 0.000000e+00  8.028140e-09 -2.730985e-10 0.000000e+00  8.317607e-09 -2.187698e-10 0.000000e+00  8.546534e-09 -1.645788e-10 0.000000e+00  8.716268e-09 -1.116100e-10 0.000000e+00  8.830504e-09 -6.083074e-11 0.000000e+00  8.890508e-09 -1.306824e-11 0.000000e+00  8.897306e-09 3.092544e-11 0.000000e+00  8.856223e-09 7.050636e-11 0.000000e+00  8.774304e-09 1.051824e-10 0.000000e+00  8.655675e-09 1.345466e-10 0.000000e+00  8.503958e-09 1.582609e-10 0.000000e+00  8.326459e-09 1.761465e-10 0.000000e+00  8.131512e-09 1.881707e-10 0.000000e+00  7.924313e-09 1.943375e-10 0.000000e+00  7.709290e-09 1.947117e-10 0.000000e+00  7.493793e-09 1.895205e-10 0.000000e+00  7.285614e-09 1.791024e-10 0.000000e+00  7.089363e-09 1.638034e-10 0.000000e+00  6.908622e-09 1.440255e-10 0.000000e+00  6.749205e-09 1.202960e-10 0.000000e+00  6.616998e-09 9.320051e-11 0.000000e+00  6.514712e-09 6.332909e-11 0.000000e+00  6.443765e-09 3.132603e-11 0.000000e+00  6.407353e-09 -2.104819e-12 0.000000e+00  6.408634e-09 -3.625828e-11 0.000000e+00  6.447550e-09 -7.041069e-11 0.000000e+00  6.522460e-09 -1.037887e-10 0.000000e+00  6.633397e-09 -1.356405e-10 0.000000e+00  6.780510e-09 -1.652682e-10 0.000000e+00  6.960578e-09 -1.919394e-10 0.000000e+00  7.168533e-09 -2.148895e-10 0.000000e+00  7.401263e-09 -2.334569e-10 0.000000e+00  7.656155e-09 -2.470789e-10 0.000000e+00  7.926999e-09 -2.551551e-10 0.000000e+00  8.205572e-09 -2.570870e-10 0.000000e+00  8.486231e-09 -2.524387e-10 0.000000e+00  8.764367e-09 -2.408955e-10 0.000000e+00  9.031563e-09 -2.221226e-10 0.000000e+00  9.277412e-09 -1.958329e-10 0.000000e+00  9.494884e-09 -1.619187e-10 0.000000e+00  9.678545e-09 -1.203819e-10 0.000000e+00  9.819085e-09 -7.124657e-11 0.000000e+00  9.905465e-09 -1.463856e-11 0.000000e+00  9.930759e-09 4.917678e-11 0.000000e+00  9.890055e-09 1.198709e-10 0.000000e+00  9.774787e-09 1.970219e-10 0.000000e+00  9.575200e-09 2.800484e-10 0.000000e+00  9.286049e-09 3.683249e-10 0.000000e+00  8.904227e-09 4.612368e-10 0.000000e+00  8.423639e-09 5.579774e-10 0.000000e+00  7.837835e-09 6.575245e-10 0.000000e+00  7.144683e-09 7.589531e-10 0.000000e+00  6.343922e-09 8.614394e-10 0.000000e+00  5.433531e-09 9.638534e-10 0.000000e+00  4.412238e-09 1.064806e-09 0.000000e+00  3.282130e-09 1.163178e-09 0.000000e+00  2.046460e-09 1.258048e-09 0.000000e+00  7.085451e-10 1.348084e-09 0.000000e+00  -7.262666e-10 1.431680e-09 0.000000e+00  -2.251092e-09 1.507688e-09 0.000000e+00  -3.859026e-09 1.575256e-09 0.000000e+00  -5.540783e-09 1.633052e-09 0.000000e+00  -7.283774e-09 1.679513e-09 0.000000e+00  -9.076561e-09 1.713705e-09 0.000000e+00  -1.090923e-08 1.735080e-09 0.000000e+00  -1.276695e-08 1.742608e-09 0.000000e+00  -1.463058e-08 1.735115e-09 0.000000e+00  -1.648551e-08 1.712188e-09 0.000000e+00  -1.832054e-08 1.673842e-09 0.000000e+00  -2.011709e-08 1.619671e-09 0.000000e+00  -2.185178e-08 1.549248e-09 0.000000e+00  -2.350952e-08 1.462923e-09 0.000000e+00  -2.508049e-08 1.361436e-09 0.000000e+00  -2.654550e-08 1.245214e-09 0.000000e+00  -2.788062e-08 1.114765e-09 0.000000e+00  -2.907370e-08 9.712443e-10 0.000000e+00  -3.011934e-08 8.160669e-10 0.000000e+00  -3.100144e-08 6.504649e-10 0.000000e+00  -3.169964e-08 4.758240e-10 0.000000e+00  -3.220793e-08 2.939208e-10 0.000000e+00  -3.252774e-08 1.065991e-10 0.000000e+00  -3.264928e-08 -8.431151e-11 0.000000e+00  -3.255934e-08 -2.767627e-10 0.000000e+00  -3.226015e-08 -4.686324e-10 0.000000e+00  -3.176123e-08 -6.579136e-10 0.000000e+00  -3.106132e-08 -8.423978e-10 0.000000e+00  -3.015693e-08 -1.019587e-09 0.000000e+00  -2.905955e-08 -1.187215e-09 0.000000e+00  -2.778706e-08 -1.343260e-09 0.000000e+00  -2.634817e-08 -1.485272e-09 0.000000e+00  -2.475085e-08 -1.610465e-09 0.000000e+00  -2.301621e-08 -1.716545e-09 0.000000e+00  -2.117038e-08 -1.801546e-09 0.000000e+00  -1.923298e-08 -1.862922e-09 0.000000e+00  -1.722448e-08 -1.897847e-09 0.000000e+00  -1.517549e-08 -1.904227e-09 0.000000e+00  -1.312015e-08 -1.880385e-09 0.000000e+00  -1.108910e-08 -1.824186e-09 0.000000e+00  -9.114949e-09 -1.733584e-09 0.000000e+00  -7.236596e-09 -1.607716e-09 0.000000e+00  -5.494711e-09 -1.446901e-09 0.000000e+00  -3.928644e-09 -1.251636e-09 0.000000e+00  -2.579676e-09 -1.023465e-09 0.000000e+00  -1.494174e-09 -7.717115e-10 0.000000e+00  -7.164166e-10 -5.061779e-10 0.000000e+00  -2.932620e-10 -3.005508e-10 0.000000e+00  -2.021817e-10 -3.052927e-10 0.000000e+00  -5.053458e-11 1.675101e-11 0.000000e+00  6.699285e-07 -6.680145e-07 0.000000e+00  1.583233e-06 -4.938603e-07 0.000000e+00  1.636453e-06 1.607458e-07 0.000000e+00  2.557659e-07 1.001795e-06 0.000000e+00  -2.756039e-06 1.879007e-06 0.000000e+00  -7.393891e-06 2.709060e-06 0.000000e+00  -1.352965e-05 3.445843e-06 0.000000e+00  -2.096623e-05 4.064519e-06 0.000000e+00  -2.946931e-05 4.553027e-06 0.000000e+00  -3.878760e-05 4.907590e-06 0.000000e+00  -4.866649e-05 5.130045e-06 0.000000e+00  -5.885761e-05 5.226147e-06 0.000000e+00  -6.912939e-05 5.204759e-06 0.000000e+00  -7.925243e-05 5.075485e-06 0.000000e+00  -8.903690e-05 4.850815e-06 0.000000e+00  -9.832095e-05 4.544018e-06 0.000000e+00  -1.069473e-04 4.167705e-06 0.000000e+00  -1.147799e-04 3.734736e-06 0.000000e+00  -1.217331e-04 3.258845e-06 0.000000e+00  -1.277499e-04 2.753307e-06 0.000000e+00  -1.327695e-04 2.229992e-06 0.000000e+00  -1.367515e-04 1.700206e-06 0.000000e+00  -1.397085e-04 1.175203e-06 0.000000e+00  -1.416761e-04 6.652262e-07 0.000000e+00  -1.426743e-04 1.789418e-07 0.000000e+00  -1.427378e-04 -2.758854e-07 0.000000e+00  -1.419516e-04 -6.920618e-07 0.000000e+00  -1.404151e-04 -1.063582e-06 0.000000e+00  -1.382003e-04 -1.385874e-06 0.000000e+00  -1.353863e-04 -1.655333e-06 0.000000e+00  -1.320974e-04 -1.869187e-06 0.000000e+00  -1.284627e-04 -2.025804e-06 0.000000e+00  -1.245739e-04 -2.124656e-06 0.000000e+00  -1.205229e-04 -2.166072e-06 0.000000e+00  -1.164397e-04 -2.151288e-06 0.000000e+00  -1.124509e-04 -2.082489e-06 0.000000e+00  -1.086388e-04 -1.962526e-06 0.000000e+00  -1.050801e-04 -1.794880e-06 0.000000e+00  -1.018823e-04 -1.583915e-06 0.000000e+00  -9.914331e-05 -1.334676e-06 0.000000e+00  -9.691319e-05 -1.052410e-06 0.000000e+00  -9.523253e-05 -7.427354e-07 0.000000e+00  -9.416634e-05 -4.120877e-07 0.000000e+00  -9.376527e-05 -6.730758e-08 0.000000e+00  -9.403258e-05 2.850149e-07 0.000000e+00  -9.496023e-05 6.381782e-07 0.000000e+00  -9.655849e-05 9.847753e-07 0.000000e+00  -9.882128e-05 1.317291e-06 0.000000e+00  -1.016989e-04 1.628921e-06 0.000000e+00  -1.051306e-04 1.913047e-06 0.000000e+00  -1.090693e-04 2.162527e-06 0.000000e+00  -1.134517e-04 2.370455e-06 0.000000e+00  -1.181786e-04 2.531099e-06 0.000000e+00  -1.231425e-04 2.639242e-06 0.000000e+00  -1.282461e-04 2.689361e-06 0.000000e+00  -1.333795e-04 2.676503e-06 0.000000e+00  -1.384073e-04 2.597291e-06 0.000000e+00  -1.431912e-04 2.449130e-06 0.000000e+00  -1.476014e-04 2.229289e-06 0.000000e+00  -1.515009e-04 1.935847e-06 0.000000e+00  -1.547407e-04 1.568708e-06 0.000000e+00  -1.571757e-04 1.128696e-06 0.000000e+00  -1.586685e-04 6.165714e-07 0.000000e+00  -1.590810e-04 3.399888e-08 0.000000e+00  -1.582784e-04 -6.154541e-07 0.000000e+00  -1.561366e-04 -1.327302e-06 0.000000e+00  -1.525386e-04 -2.097146e-06 0.000000e+00  -1.473740e-04 -2.919710e-06 0.000000e+00  -1.405503e-04 -3.787896e-06 0.000000e+00  -1.319922e-04 -4.693798e-06 0.000000e+00  -1.216309e-04 -5.629690e-06 0.000000e+00  -1.094101e-04 -6.587100e-06 0.000000e+00  -9.530529e-05 -7.555949e-06 0.000000e+00  -7.931452e-05 -8.525564e-06 0.000000e+00  -6.143995e-05 -9.485619e-06 0.000000e+00  -4.170182e-05 -1.042529e-05 0.000000e+00  -2.016273e-05 -1.133252e-05 0.000000e+00  3.088546e-06 -1.219502e-05 0.000000e+00  2.796316e-05 -1.300114e-05 0.000000e+00  5.435179e-05 -1.373919e-05 0.000000e+00  8.209543e-05 -1.439683e-05 0.000000e+00  1.110093e-04 -1.496208e-05 0.000000e+00  1.409157e-04 -1.542412e-05 0.000000e+00  1.716182e-04 -1.577274e-05 0.000000e+00  2.028694e-04 -1.599796e-05 0.000000e+00  2.344017e-04 -1.609096e-05 0.000000e+00  2.659665e-04 -1.604471e-05 0.000000e+00  2.973040e-04 -1.585358e-05 0.000000e+00  3.281091e-04 -1.551312e-05 0.000000e+00  3.580690e-04 -1.502076e-05 0.000000e+00  3.869053e-04 -1.437619e-05 0.000000e+00  4.143420e-04 -1.358103e-05 0.000000e+00  4.400696e-04 -1.263866e-05 0.000000e+00  4.637867e-04 -1.155459e-05 0.000000e+00  4.852442e-04 -1.033653e-05 0.000000e+00  5.042104e-04 -8.993975e-06 0.000000e+00  5.204338e-04 -7.538206e-06 0.000000e+00  5.336870e-04 -5.982270e-06 0.000000e+00  5.438090e-04 -4.340665e-06 0.000000e+00  5.506685e-04 -2.629113e-06 0.000000e+00  5.541264e-04 -8.647058e-07 0.000000e+00  5.540790e-04 9.343279e-07 0.000000e+00  5.504973e-04 2.749220e-06 0.000000e+00  5.433883e-04 4.560594e-06 0.000000e+00  5.327611e-04 6.347964e-06 0.000000e+00  5.186673e-04 8.090154e-06 0.000000e+00  5.012341e-04 9.766098e-06 0.000000e+00  4.806287e-04 1.135441e-05 0.000000e+00  4.570287e-04 1.283251e-05 0.000000e+00  4.306591e-04 1.417725e-05 0.000000e+00  4.018181e-04 1.536598e-05 0.000000e+00  3.708455e-04 1.637577e-05 0.000000e+00  3.381017e-04 1.718229e-05 0.000000e+00  3.039982e-04 1.776072e-05 0.000000e+00  2.690137e-04 1.808712e-05 0.000000e+00  2.336694e-04 1.813751e-05 0.000000e+00  1.985169e-04 1.788672e-05 0.000000e+00  1.641584e-04 1.730995e-05 0.000000e+00  1.312500e-04 1.638491e-05 0.000000e+00  1.004815e-04 1.509186e-05 0.000000e+00  7.256589e-05 1.341484e-05 0.000000e+00  4.823412e-05 1.134817e-05 0.000000e+00  2.819916e-05 8.907914e-06 0.000000e+00  1.309098e-05 6.152620e-06 0.000000e+00  3.339119e-06 3.232237e-06 0.000000e+00  -1.079422e-06 5.089724e-07 0.000000e+00  -1.153240e-06 -1.151964e-06 0.000000e+00  -2.175744e-10 -2.004447e-10 0.000000e+00  -3.209003e-11 6.075133e-12 0.000000e+00  5.096543e-07 -1.590849e-06 0.000000e+00  6.660091e-07 -6.388816e-07 0.000000e+00  -9.137948e-07 1.722457e-06 0.000000e+00  -4.961904e-06 4.717584e-06 0.000000e+00  -1.178457e-05 7.864179e-06 0.000000e+00  -2.139150e-05 1.087103e-05 0.000000e+00  -3.359300e-05 1.356505e-05 0.000000e+00  -4.807434e-05 1.584635e-05 0.000000e+00  -6.444580e-05 1.766232e-05 0.000000e+00  -8.227850e-05 1.899225e-05 0.000000e+00  -1.011299e-04 1.983761e-05 0.000000e+00  -1.205622e-04 2.021572e-05 0.000000e+00  -1.401637e-04 2.015647e-05 0.000000e+00  -1.595193e-04 1.969328e-05 0.000000e+00  -1.782867e-04 1.887117e-05 0.000000e+00  -1.961717e-04 1.773855e-05 0.000000e+00  -2.128838e-04 1.634171e-05 0.000000e+00  -2.281696e-04 1.472827e-05 0.000000e+00  -2.418696e-04 1.294952e-05 0.000000e+00  -2.538766e-04 1.105517e-05 0.000000e+00  -2.640729e-04 9.089778e-06 0.000000e+00  -2.723769e-04 7.095969e-06 0.000000e+00  -2.788083e-04 5.116348e-06 0.000000e+00  -2.834289e-04 3.189738e-06 0.000000e+00  -2.862689e-04 1.349021e-06 0.000000e+00  -2.873845e-04 -3.762165e-07 0.000000e+00  -2.869295e-04 -1.958479e-06 0.000000e+00  -2.850841e-04 -3.374806e-06 0.000000e+00  -2.819745e-04 -4.607684e-06 0.000000e+00  -2.777404e-04 -5.643197e-06 0.000000e+00  -2.726088e-04 -6.470569e-06 0.000000e+00  -2.668159e-04 -7.083421e-06 0.000000e+00  -2.605254e-04 -7.479587e-06 0.000000e+00  -2.539017e-04 -7.660094e-06 0.000000e+00  -2.471834e-04 -7.629462e-06 0.000000e+00  -2.406029e-04 -7.395882e-06 0.000000e+00  -2.343074e-04 -6.970085e-06 0.000000e+00  -2.284337e-04 -6.365170e-06 0.000000e+00  -2.231797e-04 -5.597644e-06 0.000000e+00  -2.187250e-04 -4.686679e-06 0.000000e+00  -2.151574e-04 -3.652190e-06 0.000000e+00  -2.125476e-04 -2.515485e-06 0.000000e+00  -2.110143e-04 -1.301028e-06 0.000000e+00  -2.106499e-04 -3.486851e-08 0.000000e+00  -2.114558e-04 1.257959e-06 0.000000e+00  -2.134126e-04 2.552038e-06 0.000000e+00  -2.165377e-04 3.819218e-06 0.000000e+00  -2.208183e-04 5.030937e-06 0.000000e+00  -2.261581e-04 6.161428e-06 0.000000e+00  -2.324407e-04 7.185689e-06 0.000000e+00  -2.395776e-04 8.076668e-06 0.000000e+00  -2.474504e-04 8.808229e-06 0.000000e+00  -2.558721e-04 9.358819e-06 0.000000e+00  -2.646412e-04 9.708875e-06 0.000000e+00  -2.735771e-04 9.837604e-06 0.000000e+00  -2.824759e-04 9.726403e-06 0.000000e+00  -2.910856e-04 9.362781e-06 0.000000e+00  -2.991496e-04 8.737226e-06 0.000000e+00  -3.064284e-04 7.839638e-06 0.000000e+00  -3.126697e-04 6.663011e-06 0.000000e+00  -3.175986e-04 5.207395e-06 0.000000e+00  -3.209481e-04 3.476327e-06 0.000000e+00  -3.224666e-04 1.473016e-06 0.000000e+00  -3.219018e-04 -7.958658e-07 0.000000e+00  -3.190074e-04 -3.316307e-06 0.000000e+00  -3.135581e-04 -6.070832e-06 0.000000e+00  -3.053422e-04 -9.042393e-06 0.000000e+00  -2.941604e-04 -1.221058e-05 0.000000e+00  -2.798473e-04 -1.554798e-05 0.000000e+00  -2.622710e-04 -1.902413e-05 0.000000e+00  -2.413103e-04 -2.260941e-05 0.000000e+00  -2.168683e-04 -2.627130e-05 0.000000e+00  -1.889078e-04 -2.997115e-05 0.000000e+00  -1.574344e-04 -3.366811e-05 0.000000e+00  -1.224603e-04 -3.732282e-05 0.000000e+00  -8.403066e-05 -4.089398e-05 0.000000e+00  -4.227142e-05 -4.433566e-05 0.000000e+00  2.642793e-06 -4.760110e-05 0.000000e+00  5.053943e-05 -5.064621e-05 0.000000e+00  1.012085e-04 -5.342663e-05 0.000000e+00  1.543458e-04 -5.589570e-05 0.000000e+00  2.095997e-04 -5.800821e-05 0.000000e+00  2.666345e-04 -5.972347e-05 0.000000e+00  3.250814e-04 -6.100311e-05 0.000000e+00  3.844742e-04 -6.180976e-05 0.000000e+00  4.443107e-04 -6.211041e-05 0.000000e+00  5.041272e-04 -6.187904e-05 0.000000e+00  5.634408e-04 -6.109485e-05 0.000000e+00  6.216824e-04 -5.974153e-05 0.000000e+00  6.782685e-04 -5.780988e-05 0.000000e+00  7.326847e-04 -5.529935e-05 0.000000e+00  7.844216e-04 -5.221658e-05 0.000000e+00  8.329047e-04 -4.857486e-05 0.000000e+00  8.775752e-04 -4.439558e-05 0.000000e+00  9.179756e-04 -3.970835e-05 0.000000e+00  9.536809e-04 -3.454962e-05 0.000000e+00  9.842264e-04 -2.896247e-05 0.000000e+00  1.009192e-03 -2.299677e-05 0.000000e+00  1.028285e-03 -1.670787e-05 0.000000e+00  1.041269e-03 -1.015575e-05 0.000000e+00  1.047887e-03 -3.405632e-06 0.000000e+00  1.047950e-03 3.472876e-06 0.000000e+00  1.041413e-03 1.040810e-05 0.000000e+00  1.028294e-03 1.732605e-05 0.000000e+00  1.008615e-03 2.414848e-05 0.000000e+00  9.824758e-04 3.079445e-05 0.000000e+00  9.501213e-04 3.718353e-05 0.000000e+00  9.118693e-04 4.323417e-05 0.000000e+00  8.680549e-04 4.886031e-05 0.000000e+00  8.191006e-04 5.397399e-05 0.000000e+00  7.655674e-04 5.848938e-05 0.000000e+00  7.080921e-04 6.232006e-05 0.000000e+00  6.473457e-04 6.537473e-05 0.000000e+00  5.840907e-04 6.756108e-05 0.000000e+00  5.192138e-04 6.879123e-05 0.000000e+00  4.536741e-04 6.897847e-05 0.000000e+00  3.884769e-04 6.803352e-05 0.000000e+00  3.247097e-04 6.587128e-05 0.000000e+00  2.635476e-04 6.241988e-05 0.000000e+00  2.062061e-04 5.762206e-05 0.000000e+00  1.539140e-04 5.144165e-05 0.000000e+00  1.078955e-04 4.388983e-05 0.000000e+00  6.930017e-05 3.506815e-05 0.000000e+00  3.907971e-05 2.523719e-05 0.000000e+00  1.780769e-05 1.496148e-05 0.000000e+00  5.378025e-06 5.410626e-06 0.000000e+00  4.928200e-07 -1.087078e-06 0.000000e+00  -2.082284e-10 -2.616855e-10 0.000000e+00  1.344141e-11 -2.681719e-11 0.000000e+00  -1.296583e-07 -1.676645e-06 0.000000e+00  -1.671883e-06 9.366678e-07 0.000000e+00  -5.910055e-06 5.949642e-06 0.000000e+00  -1.354066e-05 1.209417e-05 0.000000e+00  -2.485823e-05 1.852621e-05 0.000000e+00  -3.984384e-05 2.469650e-05 0.000000e+00  -5.825222e-05 3.025592e-05 0.000000e+00  -7.968213e-05 3.499124e-05 0.000000e+00  -1.036319e-04 3.878308e-05 0.000000e+00  -1.295426e-04 4.157819e-05 0.000000e+00  -1.568310e-04 4.337089e-05 0.000000e+00  -1.849145e-04 4.419024e-05 0.000000e+00  -2.132421e-04 4.409330e-05 0.000000e+00  -2.412491e-04 4.314571e-05 0.000000e+00  -2.684717e-04 4.143890e-05 0.000000e+00  -2.945101e-04 3.907249e-05 0.000000e+00  -3.189619e-04 3.614224e-05 0.000000e+00  -3.414737e-04 3.274735e-05 0.000000e+00  -3.618245e-04 2.899553e-05 0.000000e+00  -3.798647e-04 2.499164e-05 0.000000e+00  -3.954241e-04 2.082975e-05 0.000000e+00  -4.083820e-04 1.660017e-05 0.000000e+00  -4.187619e-04 1.239356e-05 0.000000e+00  -4.266460e-04 8.292709e-06 0.000000e+00  -4.320668e-04 4.367760e-06 0.000000e+00  -4.350936e-04 6.819891e-07 0.000000e+00  -4.359356e-04 -2.705606e-06 0.000000e+00  -4.348391e-04 -5.745672e-06 0.000000e+00  -4.319705e-04 -8.400514e-06 0.000000e+00  -4.275150e-04 -1.064006e-05 0.000000e+00  -4.217844e-04 -1.244089e-05 0.000000e+00  -4.151041e-04 -1.378903e-05 0.000000e+00  -4.076933e-04 -1.467954e-05 0.000000e+00  -3.997723e-04 -1.511428e-05 0.000000e+00  -3.916705e-04 -1.510264e-05 0.000000e+00  -3.837085e-04 -1.466192e-05 0.000000e+00  -3.760834e-04 -1.381489e-05 0.000000e+00  -3.689783e-04 -1.258935e-05 0.000000e+00  -3.626662e-04 -1.102053e-05 0.000000e+00  -3.573949e-04 -9.149438e-06 0.000000e+00  -3.532793e-04 -7.018600e-06 0.000000e+00  -3.504108e-04 -4.673531e-06 0.000000e+00  -3.489526e-04 -2.166624e-06 0.000000e+00  -3.490308e-04 4.463038e-07 0.000000e+00  -3.506404e-04 3.111753e-06 0.000000e+00  -3.537479e-04 5.775454e-06 0.000000e+00  -3.583755e-04 8.377169e-06 0.000000e+00  -3.645026e-04 1.085580e-05 0.000000e+00  -3.719891e-04 1.315646e-05 0.000000e+00  -3.806676e-04 1.522598e-05 0.000000e+00  -3.904129e-04 1.700667e-05 0.000000e+00  -4.010587e-04 1.844288e-05 0.000000e+00  -4.123399e-04 1.948899e-05 0.000000e+00  -4.239725e-04 2.010376e-05 0.000000e+00  -4.357048e-04 2.024314e-05 0.000000e+00  -4.472525e-04 1.986780e-05 0.000000e+00  -4.582632e-04 1.895179e-05 0.000000e+00  -4.683789e-04 1.747556e-05 0.000000e+00  -4.772682e-04 1.541813e-05 0.000000e+00  -4.845816e-04 1.276514e-05 0.000000e+00  -4.899382e-04 9.517631e-06 0.000000e+00  -4.929692e-04 5.684103e-06 0.000000e+00  -4.933286e-04 1.272133e-06 0.000000e+00  -4.906702e-04 -3.703279e-06 0.000000e+00  -4.846561e-04 -9.211176e-06 0.000000e+00  -4.749794e-04 -1.521319e-05 0.000000e+00  -4.613525e-04 -2.167212e-05 0.000000e+00  -4.435054e-04 -2.854362e-05 0.000000e+00  -4.212167e-04 -3.576806e-05 0.000000e+00  -3.943128e-04 -4.327943e-05 0.000000e+00  -3.626344e-04 -5.101370e-05 0.000000e+00  -3.260564e-04 -5.890080e-05 0.000000e+00  -2.845385e-04 -6.685730e-05 0.000000e+00  -2.381015e-04 -7.479520e-05 0.000000e+00  -1.867729e-04 -8.262996e-05 0.000000e+00  -1.306266e-04 -9.027313e-05 0.000000e+00  -6.985114e-05 -9.762608e-05 0.000000e+00  -4.703305e-06 -1.045887e-04 0.000000e+00  6.456597e-05 -1.110669e-04 0.000000e+00  1.376544e-04 -1.169663e-04 0.000000e+00  2.141255e-04 -1.221872e-04 0.000000e+00  2.934772e-04 -1.266336e-04 0.000000e+00  3.752338e-04 -1.302192e-04 0.000000e+00  4.588745e-04 -1.328631e-04 0.000000e+00  5.437404e-04 -1.344861e-04 0.000000e+00  6.291227e-04 -1.350189e-04 0.000000e+00  7.143715e-04 -1.344069e-04 0.000000e+00  7.988123e-04 -1.326070e-04 0.000000e+00  8.816462e-04 -1.295855e-04 0.000000e+00  9.620562e-04 -1.253239e-04 0.000000e+00  1.039327e-03 -1.198223e-04 0.000000e+00  1.112750e-03 -1.130961e-04 0.000000e+00  1.181525e-03 -1.051746e-04 0.000000e+00  1.244873e-03 -9.610451e-05 0.000000e+00  1.302161e-03 -8.595005e-05 0.000000e+00  1.352802e-03 -7.478991e-05 0.000000e+00  1.396152e