<?xml version="1.0"?>
<VTKFile type="UnstructuredGrid"  version="0.1"  >
<UnstructuredGrid>
<Piece  NumberOfPoints="16641" NumberOfCells="32768">
<Points>
<DataArray  type="Float32"  NumberOfComponents="3"  format="ascii">0 0 0  0.0078125 0 0  0.015625 0 0  0.0234375 0 0  0.03125 0 0  0.0390625 0 0  0.046875 0 0  0.0546875 0 0  0.0625 0 0  0.0703125 0 0  0.078125 0 0  0.0859375 0 0  0.09375 0 0  0.101562 0 0  0.109375 0 0  0.117188 0 0  0.125 0 0  0.132812 0 0  0.140625 0 0  0.148438 0 0  0.15625 0 0  0.164062 0 0  0.171875 0 0  0.179688 0 0  0.1875 0 0  0.195312 0 0  0.203125 0 0  0.210938 0 0  0.21875 0 0  0.226562 0 0  0.234375 0 0  0.242188 0 0  0.25 0 0  0.257812 0 0  0.265625 0 0  0.273438 0 0  0.28125 0 0  0.289062 0 0  0.296875 0 0  0.304688 0 0  0.3125 0 0  0.320312 0 0  0.328125 0 0  0.335938 0 0  0.34375 0 0  0.351562 0 0  0.359375 0 0  0.367188 0 0  0.375 0 0  0.382812 0 0  0.390625 0 0  0.398438 0 0  0.40625 0 0  0.414062 0 0  0.421875 0 0  0.429688 0 0  0.4375 0 0  0.445312 0 0  0.453125 0 0  0.460938 0 0  0.46875 0 0  0.476562 0 0  0.484375 0 0  0.492188 0 0  0.5 0 0  0.507812 0 0  0.515625 0 0  0.523438 0 0  0.53125 0 0  0.539062 0 0  0.546875 0 0  0.554688 0 0  0.5625 0 0  0.570312 0 0  0.578125 0 0  0.585938 0 0  0.59375 0 0  0.601562 0 0  0.609375 0 0  0.617188 0 0  0.625 0 0  0.632812 0 0  0.640625 0 0  0.648438 0 0  0.65625 0 0  0.664062 0 0  0.671875 0 0  0.679688 0 0  0.6875 0 0  0.695312 0 0  0.703125 0 0  0.710938 0 0  0.71875 0 0  0.726562 0 0  0.734375 0 0  0.742188 0 0  0.75 0 0  0.757812 0 0  0.765625 0 0  0.773438 0 0  0.78125 0 0  0.789062 0 0  0.796875 0 0  0.804688 0 0  0.8125 0 0  0.820312 0 0  0.828125 0 0  0.835938 0 0  0.84375 0 0  0.851562 0 0  0.859375 0 0  0.867188 0 0  0.875 0 0  0.882812 0 0  0.890625 0 0  0.898438 0 0  0.90625 0 0  0.914062 0 0  0.921875 0 0  0.929688 0 0  0.9375 0 0  0.945312 0 0  0.953125 0 0  0.960938 0 0  0.96875 0 0  0.976562 0 0  0.984375 0 0  0.992188 0 0  1 0 0  0 0.0078125 0  0.0078125 0.0078125 0  0.015625 0.0078125 0  0.0234375 0.0078125 0  0.03125 0.0078125 0  0.0390625 0.0078125 0  0.046875 0.0078125 0  0.0546875 0.0078125 0  0.0625 0.0078125 0  0.0703125 0.0078125 0  0.078125 0.0078125 0  0.0859375 0.0078125 0  0.09375 0.0078125 0  0.101562 0.0078125 0  0.109375 0.0078125 0  0.117188 0.0078125 0  0.125 0.0078125 0  0.132812 0.0078125 0  0.140625 0.0078125 0  0.148438 0.0078125 0  0.15625 0.0078125 0  0.164062 0.0078125 0  0.171875 0.0078125 0  0.179688 0.0078125 0  0.1875 0.0078125 0  0.195312 0.0078125 0  0.203125 0.0078125 0  0.210938 0.0078125 0  0.21875 0.0078125 0  0.226562 0.0078125 0  0.234375 0.0078125 0  0.242188 0.0078125 0  0.25 0.0078125 0  0.257812 0.0078125 0  0.265625 0.0078125 0  0.273438 0.0078125 0  0.28125 0.0078125 0  0.289062 0.0078125 0  0.296875 0.0078125 0  0.304688 0.0078125 0  0.3125 0.0078125 0  0.320312 0.0078125 0  0.328125 0.0078125 0  0.335938 0.0078125 0  0.34375 0.0078125 0  0.351562 0.0078125 0  0.359375 0.0078125 0  0.367188 0.0078125 0  0.375 0.0078125 0  0.382812 0.0078125 0  0.390625 0.0078125 0  0.398438 0.0078125 0  0.40625 0.0078125 0  0.414062 0.0078125 0  0.421875 0.0078125 0  0.429688 0.0078125 0  0.4375 0.0078125 0  0.445312 0.0078125 0  0.453125 0.0078125 0  0.460938 0.0078125 0  0.46875 0.0078125 0  0.476562 0.0078125 0  0.484375 0.0078125 0  0.492188 0.0078125 0  0.5 0.0078125 0  0.507812 0.0078125 0  0.515625 0.0078125 0  0.523438 0.0078125 0  0.53125 0.0078125 0  0.539062 0.0078125 0  0.546875 0.0078125 0  0.554688 0.0078125 0  0.5625 0.0078125 0  0.570312 0.0078125 0  0.578125 0.0078125 0  0.585938 0.0078125 0  0.59375 0.0078125 0  0.601562 0.0078125 0  0.609375 0.0078125 0  0.617188 0.0078125 0  0.625 0.0078125 0  0.632812 0.0078125 0  0.640625 0.0078125 0  0.648438 0.0078125 0  0.65625 0.0078125 0  0.664062 0.0078125 0  0.671875 0.0078125 0  0.679688 0.0078125 0  0.6875 0.0078125 0  0.695312 0.0078125 0  0.703125 0.0078125 0  0.710938 0.0078125 0  0.71875 0.0078125 0  0.726562 0.0078125 0  0.734375 0.0078125 0  0.742188 0.0078125 0  0.75 0.0078125 0  0.757812 0.0078125 0  0.765625 0.0078125 0  0.773438 0.0078125 0  0.78125 0.0078125 0  0.789062 0.0078125 0  0.796875 0.0078125 0  0.804688 0.0078125 0  0.8125 0.0078125 0  0.820312 0.0078125 0  0.828125 0.0078125 0  0.835938 0.0078125 0  0.84375 0.0078125 0  0.851562 0.0078125 0  0.859375 0.0078125 0  0.867188 0.0078125 0  0.875 0.0078125 0  0.882812 0.0078125 0  0.890625 0.0078125 0  0.898438 0.0078125 0  0.90625 0.0078125 0  0.914062 0.0078125 0  0.921875 0.0078125 0  0.929688 0.0078125 0  0.9375 0.0078125 0  0.945312 0.0078125 0  0.953125 0.0078125 0  0.960938 0.0078125 0  0.96875 0.0078125 0  0.976562 0.0078125 0  0.984375 0.0078125 0  0.992188 0.0078125 0  1 0.0078125 0  0 0.015625 0  0.0078125 0.015625 0  0.015625 0.015625 0  0.0234375 0.015625 0  0.03125 0.015625 0  0.0390625 0.015625 0  0.046875 0.015625 0  0.0546875 0.015625 0  0.0625 0.015625 0  0.0703125 0.015625 0  0.078125 0.015625 0  0.0859375 0.015625 0  0.09375 0.015625 0  0.101562 0.015625 0  0.109375 0.015625 0  0.117188 0.015625 0  0.125 0.015625 0  0.132812 0.015625 0  0.140625 0.015625 0  0.148438 0.015625 0  0.15625 0.015625 0  0.164062 0.015625 0  0.171875 0.015625 0  0.179688 0.015625 0  0.1875 0.015625 0  0.195312 0.015625 0  0.203125 0.015625 0  0.210938 0.015625 0  0.21875 0.015625 0  0.226562 0.015625 0  0.234375 0.015625 0  0.242188 0.015625 0  0.25 0.015625 0  0.257812 0.015625 0  0.265625 0.015625 0  0.273438 0.015625 0  0.28125 0.015625 0  0.289062 0.015625 0  0.296875 0.015625 0  0.304688 0.015625 0  0.3125 0.015625 0  0.320312 0.015625 0  0.328125 0.015625 0  0.335938 0.015625 0  0.34375 0.015625 0  0.351562 0.015625 0  0.359375 0.015625 0  0.367188 0.015625 0  0.375 0.015625 0  0.382812 0.015625 0  0.390625 0.015625 0  0.398438 0.015625 0  0.40625 0.015625 0  0.414062 0.015625 0  0.421875 0.015625 0  0.429688 0.015625 0  0.4375 0.015625 0  0.445312 0.015625 0  0.453125 0.015625 0  0.460938 0.015625 0  0.46875 0.015625 0  0.476562 0.015625 0  0.484375 0.015625 0  0.492188 0.015625 0  0.5 0.015625 0  0.507812 0.015625 0  0.515625 0.015625 0  0.523438 0.015625 0  0.53125 0.015625 0  0.539062 0.015625 0  0.546875 0.015625 0  0.554688 0.015625 0  0.5625 0.015625 0  0.570312 0.015625 0  0.578125 0.015625 0  0.585938 0.015625 0  0.59375 0.015625 0  0.601562 0.015625 0  0.609375 0.015625 0  0.617188 0.015625 0  0.625 0.015625 0  0.632812 0.015625 0  0.640625 0.015625 0  0.648438 0.015625 0  0.65625 0.015625 0  0.664062 0.015625 0  0.671875 0.015625 0  0.679688 0.015625 0  0.6875 0.015625 0  0.695312 0.015625 0  0.703125 0.015625 0  0.710938 0.015625 0  0.71875 0.015625 0  0.726562 0.015625 0  0.734375 0.015625 0  0.742188 0.015625 0  0.75 0.015625 0  0.757812 0.015625 0  0.765625 0.015625 0  0.773438 0.015625 0  0.78125 0.015625 0  0.789062 0.015625 0  0.796875 0.015625 0  0.804688 0.015625 0  0.8125 0.015625 0  0.820312 0.015625 0  0.828125 0.015625 0  0.835938 0.015625 0  0.84375 0.015625 0  0.851562 0.015625 0  0.859375 0.015625 0  0.867188 0.015625 0  0.875 0.015625 0  0.882812 0.015625 0  0.890625 0.015625 0  0.898438 0.015625 0  0.90625 0.015625 0  0.914062 0.015625 0  0.921875 0.015625 0  0.929688 0.015625 0  0.9375 0.015625 0  0.945312 0.015625 0  0.953125 0.015625 0  0.960938 0.015625 0  0.96875 0.015625 0  0.976562 0.015625 0  0.984375 0.015625 0  0.992188 0.015625 0  1 0.015625 0  0 0.0234375 0  0.0078125 0.0234375 0  0.015625 0.0234375 0  0.0234375 0.0234375 0  0.03125 0.0234375 0  0.0390625 0.0234375 0  0.046875 0.0234375 0  0.0546875 0.0234375 0  0.0625 0.0234375 0  0.0703125 0.0234375 0  0.078125 0.0234375 0  0.0859375 0.0234375 0  0.09375 0.0234375 0  0.101562 0.0234375 0  0.109375 0.0234375 0  0.117188 0.0234375 0  0.125 0.0234375 0  0.132812 0.0234375 0  0.140625 0.0234375 0  0.148438 0.0234375 0  0.15625 0.0234375 0  0.164062 0.0234375 0  0.171875 0.0234375 0  0.179688 0.0234375 0  0.1875 0.0234375 0  0.195312 0.0234375 0  0.203125 0.0234375 0  0.210938 0.0234375 0  0.21875 0.0234375 0  0.226562 0.0234375 0  0.234375 0.0234375 0  0.242188 0.0234375 0  0.25 0.0234375 0  0.257812 0.0234375 0  0.265625 0.0234375 0  0.273438 0.0234375 0  0.28125 0.0234375 0  0.289062 0.0234375 0  0.296875 0.0234375 0  0.304688 0.0234375 0  0.3125 0.0234375 0  0.320312 0.0234375 0  0.328125 0.0234375 0  0.335938 0.0234375 0  0.34375 0.0234375 0  0.351562 0.0234375 0  0.359375 0.0234375 0  0.367188 0.0234375 0  0.375 0.0234375 0  0.382812 0.0234375 0  0.390625 0.0234375 0  0.398438 0.0234375 0  0.40625 0.0234375 0  0.414062 0.0234375 0  0.421875 0.0234375 0  0.429688 0.0234375 0  0.4375 0.0234375 0  0.445312 0.0234375 0  0.453125 0.0234375 0  0.460938 0.0234375 0  0.46875 0.0234375 0  0.476562 0.0234375 0  0.484375 0.0234375 0  0.492188 0.0234375 0  0.5 0.0234375 0  0.507812 0.0234375 0  0.515625 0.0234375 0  0.523438 0.0234375 0  0.53125 0.0234375 0  0.539062 0.0234375 0  0.546875 0.0234375 0  0.554688 0.0234375 0  0.5625 0.0234375 0  0.570312 0.0234375 0  0.578125 0.0234375 0  0.585938 0.0234375 0  0.59375 0.0234375 0  0.601562 0.0234375 0  0.609375 0.0234375 0  0.617188 0.0234375 0  0.625 0.0234375 0  0.632812 0.0234375 0  0.640625 0.0234375 0  0.648438 0.0234375 0  0.65625 0.0234375 0  0.664062 0.0234375 0  0.671875 0.0234375 0  0.679688 0.0234375 0  0.6875 0.0234375 0  0.695312 0.0234375 0  0.703125 0.0234375 0  0.710938 0.0234375 0  0.71875 0.0234375 0  0.726562 0.0234375 0  0.734375 0.0234375 0  0.742188 0.0234375 0  0.75 0.0234375 0  0.757812 0.0234375 0  0.765625 0.0234375 0  0.773438 0.0234375 0  0.78125 0.0234375 0  0.789062 0.0234375 0  0.796875 0.0234375 0  0.804688 0.0234375 0  0.8125 0.0234375 0  0.820312 0.0234375 0  0.828125 0.0234375 0  0.835938 0.0234375 0  0.84375 0.0234375 0  0.851562 0.0234375 0  0.859375 0.0234375 0  0.867188 0.0234375 0  0.875 0.0234375 0  0.882812 0.0234375 0  0.890625 0.0234375 0  0.898438 0.0234375 0  0.90625 0.0234375 0  0.914062 0.0234375 0  0.921875 0.0234375 0  0.929688 0.0234375 0  0.9375 0.0234375 0  0.945312 0.0234
[...]
<PointData  Vectors="u"> 
<DataArray  type="Float32"  Name="u"  NumberOfComponents="3" format="ascii">2.971549e-12 1.168290e-12 0.000000e+00  -1.219367e-12 1.663082e-12 0.000000e+00  2.747900e-12 -6.001194e-12 0.000000e+00  5.321161e-12 -1.365717e-11 0.000000e+00  2.144539e-11 -2.578317e-11 0.000000e+00  5.233775e-11 -3.925889e-11 0.000000e+00  9.952580e-11 -5.253230e-11 0.000000e+00  1.621704e-10 -6.456178e-11 0.000000e+00  2.383905e-10 -7.471176e-11 0.000000e+00  3.257996e-10 -8.267775e-11 0.000000e+00  4.217950e-10 -8.835520e-11 0.000000e+00  5.237078e-10 -9.175533e-11 0.000000e+00  6.290477e-10 -9.297073e-11 0.000000e+00  7.351008e-10 -9.210776e-11 0.000000e+00  8.397595e-10 -8.935165e-11 0.000000e+00  9.408404e-10 -8.487367e-11 0.000000e+00  1.036314e-09 -7.885791e-11 0.000000e+00  1.124618e-09 -7.151622e-11 0.000000e+00  1.204406e-09 -6.305837e-11 0.000000e+00  1.274278e-09 -5.367830e-11 0.000000e+00  1.333117e-09 -4.357581e-11 0.000000e+00  1.380369e-09 -3.295881e-11 0.000000e+00  1.415611e-09 -2.201789e-11 0.000000e+00  1.438277e-09 -1.092884e-11 0.000000e+00  1.448142e-09 1.292848e-13 0.000000e+00  1.445550e-09 1.098802e-11 0.000000e+00  1.430843e-09 2.150572e-11 0.000000e+00  1.404164e-09 3.154786e-11 0.000000e+00  1.366036e-09 4.097780e-11 0.000000e+00  1.317474e-09 4.968503e-11 0.000000e+00  1.259330e-09 5.759025e-11 0.000000e+00  1.192250e-09 6.461216e-11 0.000000e+00  1.117286e-09 7.066820e-11 0.000000e+00  1.035835e-09 7.571204e-11 0.000000e+00  9.489754e-10 7.972775e-11 0.000000e+00  8.576109e-10 8.268979e-11 0.000000e+00  7.630669e-10 8.457257e-11 0.000000e+00  6.668263e-10 8.539000e-11 0.000000e+00  5.699262e-10 8.518092e-11 0.000000e+00  4.732892e-10 8.397012e-11 0.000000e+00  3.782553e-10 8.178433e-11 0.000000e+00  2.861372e-10 7.868603e-11 0.000000e+00  1.977131e-10 7.475354e-11 0.000000e+00  1.137227e-10 7.005069e-11 0.000000e+00  3.529572e-11 6.464580e-11 0.000000e+00  -3.661924e-11 5.863324e-11 0.000000e+00  -1.016402e-10 5.211210e-11 0.000000e+00  -1.593559e-10 4.517019e-11 0.000000e+00  -2.090137e-10 3.790250e-11 0.000000e+00  -2.501415e-10 3.041645e-11 0.000000e+00  -2.828044e-10 2.281270e-11 0.000000e+00  -3.069934e-10 1.518639e-11 0.000000e+00  -3.224276e-10 7.642169e-12 0.000000e+00  -3.291370e-10 2.820836e-13 0.000000e+00  -3.276015e-10 -6.808893e-12 0.000000e+00  -3.182138e-10 -1.354443e-11 0.000000e+00  -3.011806e-10 -1.982726e-11 0.000000e+00  -2.769792e-10 -2.557669e-11 0.000000e+00  -2.464023e-10 -3.073668e-11 0.000000e+00  -2.101753e-10 -3.524366e-11 0.000000e+00  -1.689319e-10 -3.902294e-11 0.000000e+00  -1.234771e-10 -4.202690e-11 0.000000e+00  -7.476494e-11 -4.423665e-11 0.000000e+00  -2.372872e-11 -4.562157e-11 0.000000e+00  2.869588e-11 -4.614119e-11 0.000000e+00  8.154022e-11 -4.578745e-11 0.000000e+00  1.338638e-10 -4.458105e-11 0.000000e+00  1.846878e-10 -4.252978e-11 0.000000e+00  2.329455e-10 -3.963411e-11 0.000000e+00  2.776874e-10 -3.592625e-11 0.000000e+00  3.181599e-10 -3.146318e-11 0.000000e+00  3.535147e-10 -2.629114e-11 0.000000e+00  3.827470e-10 -2.045249e-11 0.000000e+00  4.051017e-10 -1.401456e-11 0.000000e+00  4.201585e-10 -7.062073e-12 0.000000e+00  4.273653e-10 3.257157e-13 0.000000e+00  4.259660e-10 8.069949e-12 0.000000e+00  4.155418e-10 1.607860e-11 0.000000e+00  3.961043e-10 2.425183e-11 0.000000e+00  3.675277e-10 3.248826e-11 0.000000e+00  3.294565e-10 4.068375e-11 0.000000e+00  2.818955e-10 4.873625e-11 0.000000e+00  2.253223e-10 5.654642e-11 0.000000e+00  1.601096e-10 6.400574e-11 0.000000e+00  8.639373e-11 7.100129e-11 0.000000e+00  4.618566e-12 7.743828e-11 0.000000e+00  -8.431114e-11 8.323456e-11 0.000000e+00  -1.795268e-10 8.829242e-11 0.000000e+00  -2.803914e-10 9.250992e-11 0.000000e+00  -3.860865e-10 9.581766e-11 0.000000e+00  -4.953928e-10 9.816650e-11 0.000000e+00  -6.070331e-10 9.948825e-11 0.000000e+00  -7.199547e-10 9.971284e-11 0.000000e+00  -8.331071e-10 9.881257e-11 0.000000e+00  -9.451362e-10 9.678448e-11 0.000000e+00  -1.054527e-09 9.360692e-11 0.000000e+00  -1.159989e-09 8.926047e-11 0.000000e+00  -1.260450e-09 8.377151e-11 0.000000e+00  -1.354649e-09 7.719156e-11 0.000000e+00  -1.441076e-09 6.955811e-11 0.000000e+00  -1.518459e-09 6.091599e-11 0.000000e+00  -1.585957e-09 5.135156e-11 0.000000e+00  -1.642658e-09 4.097272e-11 0.000000e+00  -1.687343e-09 2.988165e-11 0.000000e+00  -1.719065e-09 1.819252e-11 0.000000e+00  -1.737477e-09 6.049340e-12 0.000000e+00  -1.742265e-09 -6.389467e-12 0.000000e+00  -1.732799e-09 -1.896071e-11 0.000000e+00  -1.708766e-09 -3.148690e-11 0.000000e+00  -1.670550e-09 -4.377846e-11 0.000000e+00  -1.618639e-09 -5.564041e-11 0.000000e+00  -1.553260e-09 -6.686340e-11 0.000000e+00  -1.474985e-09 -7.722613e-11 0.000000e+00  -1.385096e-09 -8.651625e-11 0.000000e+00  -1.285016e-09 -9.452567e-11 0.000000e+00  -1.175994e-09 -1.010278e-10 0.000000e+00  -1.059637e-09 -1.057946e-10 0.000000e+00  -9.381631e-10 -1.086300e-10 0.000000e+00  -8.139312e-10 -1.093549e-10 0.000000e+00  -6.892291e-10 -1.077838e-10 0.000000e+00  -5.666280e-10 -1.037602e-10 0.000000e+00  -4.491023e-10 -9.719960e-11 0.000000e+00  -3.397064e-10 -8.809139e-11 0.000000e+00  -2.414074e-10 -7.648121e-11 0.000000e+00  -1.572137e-10 -6.252198e-11 0.000000e+00  -9.026643e-11 -4.682972e-11 0.000000e+00  -4.320951e-11 -3.043250e-11 0.000000e+00  -1.795863e-11 -1.802357e-11 0.000000e+00  -1.335341e-11 -1.796269e-11 0.000000e+00  -4.699525e-12 1.965699e-12 0.000000e+00  5.563788e-08 -5.544619e-08 0.000000e+00  5.352752e-08 2.376585e-08 0.000000e+00  -1.518944e-07 1.526173e-07 0.000000e+00  -6.081294e-07 2.895302e-07 0.000000e+00  -1.314189e-06 4.172937e-07 0.000000e+00  -2.246799e-06 5.281842e-07 0.000000e+00  -3.371792e-06 6.189904e-07 0.000000e+00  -4.650518e-06 6.886960e-07 0.000000e+00  -6.043063e-06 7.374279e-07 0.000000e+00  -7.510075e-06 7.659596e-07 0.000000e+00  -9.013847e-06 7.754523e-07 0.000000e+00  -1.051900e-05 7.673037e-07 0.000000e+00  -1.199670e-05 7.433754e-07 0.000000e+00  -1.340590e-05 7.044387e-07 0.000000e+00  -1.472677e-05 6.528162e-07 0.000000e+00  -1.594718e-05 5.907792e-07 0.000000e+00  -1.703862e-05 5.195197e-07 0.000000e+00  -1.797195e-05 4.403151e-07 0.000000e+00  -1.874517e-05 3.553808e-07 0.000000e+00  -1.936308e-05 2.667745e-07 0.000000e+00  -1.980630e-05 1.756457e-07 0.000000e+00  -2.005549e-05 8.318292e-08 0.000000e+00  -2.012451e-05 -8.793721e-09 0.000000e+00  -2.003254e-05 -9.867507e-08 0.000000e+00  -1.976829e-05 -1.855421e-07 0.000000e+00  -1.932081e-05 -2.684711e-07 0.000000e+00  -1.871614e-05 -3.461973e-07 0.000000e+00  -1.798378e-05 -4.176895e-07 0.000000e+00  -1.711830e-05 -4.823678e-07 0.000000e+00  -1.611467e-05 -5.396669e-07 0.000000e+00  -1.500651e-05 -5.889414e-07 0.000000e+00  -1.382890e-05 -6.297769e-07 0.000000e+00  -1.257950e-05 -6.619660e-07 0.000000e+00  -1.125628e-05 -6.853187e-07 0.000000e+00  -9.895607e-06 -6.997907e-07 0.000000e+00  -8.533470e-06 -7.055464e-07 0.000000e+00  -7.167774e-06 -7.027166e-07 0.000000e+00  -5.796731e-06 -6.914399e-07 0.000000e+00  -4.455019e-06 -6.721889e-07 0.000000e+00  -3.175374e-06 -6.456086e-07 0.000000e+00  -1.953618e-06 -6.120830e-07 0.000000e+00  -7.859684e-07 -5.719845e-07 0.000000e+00  2.981518e-07 -5.261734e-07 0.000000e+00  1.272504e-06 -4.756367e-07 0.000000e+00  2.144877e-06 -4.208941e-07 0.000000e+00  2.922419e-06 -3.624296e-07 0.000000e+00  3.583416e-06 -3.013364e-07 0.000000e+00  4.110197e-06 -2.387860e-07 0.000000e+00  4.514702e-06 -1.753029e-07 0.000000e+00  4.807820e-06 -1.113521e-07 0.000000e+00  4.976765e-06 -4.809995e-08 0.000000e+00  5.013245e-06 1.325572e-08 0.000000e+00  4.932885e-06 7.231133e-08 0.000000e+00  4.749689e-06 1.287433e-07 0.000000e+00  4.459802e-06 1.814589e-07 0.000000e+00  4.063945e-06 2.293764e-07 0.000000e+00  3.580043e-06 2.723188e-07 0.000000e+00  3.023716e-06 3.102023e-07 0.000000e+00  2.398984e-06 3.421293e-07 0.000000e+00  1.714211e-06 3.672463e-07 0.000000e+00  9.875219e-07 3.856771e-07 0.000000e+00  2.340193e-07 3.976415e-07 0.000000e+00  -5.362705e-07 4.025211e-07 0.000000e+00  -1.309456e-06 3.997652e-07 0.000000e+00  -2.069721e-06 3.898311e-07 0.000000e+00  -2.804965e-06 3.732644e-07 0.000000e+00  -3.501514e-06 3.497668e-07 0.000000e+00  -4.142471e-06 3.191203e-07 0.000000e+00  -4.716928e-06 2.821034e-07 0.000000e+00  -5.218257e-06 2.395639e-07 0.000000e+00  -5.631645e-06 1.915187e-07 0.000000e+00  -5.939757e-06 1.380657e-07 0.000000e+00  -6.138917e-06 8.024712e-08 0.000000e+00  -6.230079e-06 1.914376e-08 0.000000e+00  -6.199575e-06 -4.496235e-08 0.000000e+00  -6.031907e-06 -1.117172e-07 0.000000e+00  -5.732324e-06 -1.799152e-07 0.000000e+00  -5.310761e-06 -2.483530e-07 0.000000e+00  -4.756440e-06 -3.165725e-07 0.000000e+00  -4.057343e-06 -3.840607e-07 0.000000e+00  -3.228412e-06 -4.495840e-07 0.000000e+00  -2.288965e-06 -5.119590e-07 0.000000e+00  -1.232035e-06 -5.706699e-07 0.000000e+00  -4.986015e-08 -6.251688e-07 0.000000e+00  1.233322e-06 -6.743517e-07 0.000000e+00  2.589602e-06 -7.172167e-07 0.000000e+00  4.022214e-06 -7.533249e-07 0.000000e+00  5.534915e-06 -7.822285e-07 0.000000e+00  7.095841e-06 -8.031180e-07 0.000000e+00  8.670571e-06 -8.153366e-07 0.000000e+00  1.025973e-05 -8.186544e-07 0.000000e+00  1.186437e-05 -8.128524e-07 0.000000e+00  1.344792e-05 -7.975677e-07 0.000000e+00  1.497274e-05 -7.726338e-07 0.000000e+00  1.643893e-05 -7.381403e-07 0.000000e+00  1.784706e-05 -6.941994e-07 0.000000e+00  1.915983e-05 -6.410122e-07 0.000000e+00  2.034068e-05 -5.790087e-07 0.000000e+00  2.139196e-05 -5.086661e-07 0.000000e+00  2.231659e-05 -4.304833e-07 0.000000e+00  2.308128e-05 -3.452895e-07 0.000000e+00  2.365539e-05 -2.541563e-07 0.000000e+00  2.404663e-05 -1.579580e-07 0.000000e+00  2.426330e-05 -5.757285e-08 0.000000e+00  2.428104e-05 4.555007e-08 0.000000e+00  2.408007e-05 1.497264e-07 0.000000e+00  2.367634e-05 2.537481e-07 0.000000e+00  2.308620e-05 3.564355e-07 0.000000e+00  2.229877e-05 4.558091e-07 0.000000e+00  2.130949e-05 5.496866e-07 0.000000e+00  2.014457e-05 6.366629e-07 0.000000e+00  1.883024e-05 7.154051e-07 0.000000e+00  1.737254e-05 7.835785e-07 0.000000e+00  1.578514e-05 8.387122e-07 0.000000e+00  1.410519e-05 8.794147e-07 0.000000e+00  1.236907e-05 9.044176e-07 0.000000e+00  1.060133e-05 9.113254e-07 0.000000e+00  8.834535e-06 8.977579e-07 0.000000e+00  7.115022e-06 8.627242e-07 0.000000e+00  5.487020e-06 8.054882e-07 0.000000e+00  3.990940e-06 7.244452e-07 0.000000e+00  2.672626e-06 6.187522e-07 0.000000e+00  1.577851e-06 4.899992e-07 0.000000e+00  7.439251e-07 3.419580e-07 0.000000e+00  1.994538e-07 1.826244e-07 0.000000e+00  -5.067537e-08 3.236373e-08 0.000000e+00  -6.049052e-08 -6.062962e-08 0.000000e+00  -1.370113e-11 -1.215471e-11 0.000000e+00  6.644720e-13 -2.658033e-12 0.000000e+00  -2.223032e-08 -5.425447e-08 0.000000e+00  -2.473918e-07 2.500147e-07 0.000000e+00  -8.289887e-07 6.994543e-07 0.000000e+00  -1.824729e-06 1.180985e-06 0.000000e+00  -3.236510e-06 1.636467e-06 0.000000e+00  -5.031236e-06 2.036716e-06 0.000000e+00  -7.156054e-06 2.367797e-06 0.000000e+00  -9.547925e-06 2.624015e-06 0.000000e+00  -1.213943e-05 2.804367e-06 0.000000e+00  -1.486248e-05 2.910663e-06 0.000000e+00  -1.765066e-05 2.946465e-06 0.000000e+00  -2.044085e-05 2.916478e-06 0.000000e+00  -2.318186e-05 2.827276e-06 0.000000e+00  -2.579690e-05 2.681462e-06 0.000000e+00  -2.825098e-05 2.487630e-06 0.000000e+00  -3.052316e-05 2.254217e-06 0.000000e+00  -3.255941e-05 1.985586e-06 0.000000e+00  -3.430425e-05 1.686496e-06 0.000000e+00  -3.575491e-05 1.365340e-06 0.000000e+00  -3.692132e-05 1.029893e-06 0.000000e+00  -3.776579e-05 6.844537e-07 0.000000e+00  -3.825043e-05 3.335374e-07 0.000000e+00  -3.840189e-05 -1.588927e-08 0.000000e+00  -3.825673e-05 -3.577085e-07 0.000000e+00  -3.779209e-05 -6.884520e-07 0.000000e+00  -3.698548e-05 -1.004570e-06 0.000000e+00  -3.588637e-05 -1.301185e-06 0.000000e+00  -3.455064e-05 -1.574362e-06 0.000000e+00  -3.296629e-05 -1.821901e-06 0.000000e+00  -3.112190e-05 -2.041596e-06 0.000000e+00  -2.908119e-05 -2.230930e-06 0.000000e+00  -2.691069e-05 -2.388316e-06 0.000000e+00  -2.460414e-05 -2.512958e-06 0.000000e+00  -2.215592e-05 -2.604074e-06 0.000000e+00  -1.963504e-05 -2.661448e-06 0.000000e+00  -1.710983e-05 -2.685708e-06 0.000000e+00  -1.457466e-05 -2.677339e-06 0.000000e+00  -1.202457e-05 -2.636810e-06 0.000000e+00  -9.525560e-06 -2.565894e-06 0.000000e+00  -7.139944e-06 -2.467063e-06 0.000000e+00  -4.858410e-06 -2.341760e-06 0.000000e+00  -2.672529e-06 -2.191353e-06 0.000000e+00  -6.385427e-07 -2.019111e-06 0.000000e+00  1.193363e-06 -1.828820e-06 0.000000e+00  2.839007e-06 -1.622439e-06 0.000000e+00  4.312824e-06 -1.401765e-06 0.000000e+00  5.572997e-06 -1.170974e-06 0.000000e+00  6.585416e-06 -9.345669e-07 0.000000e+00  7.373400e-06 -6.945147e-07 0.000000e+00  7.958075e-06 -4.525459e-07 0.000000e+00  8.314399e-06 -2.131341e-07 0.000000e+00  8.425932e-06 1.911578e-08 0.000000e+00  8.322602e-06 2.426993e-07 0.000000e+00  8.031056e-06 4.564230e-07 0.000000e+00  7.543095e-06 6.560825e-07 0.000000e+00  6.859320e-06 8.375133e-07 0.000000e+00  6.013666e-06 1.000083e-06 0.000000e+00  5.035498e-06 1.143510e-06 0.000000e+00  3.931541e-06 1.264325e-06 0.000000e+00  2.716902e-06 1.359237e-06 0.000000e+00  1.425607e-06 1.428767e-06 0.000000e+00  8.574070e-08 1.473791e-06 0.000000e+00  -1.284504e-06 1.491898e-06 0.000000e+00  -2.659435e-06 1.480957e-06 0.000000e+00  -4.009642e-06 1.442769e-06 0.000000e+00  -5.312944e-06 1.379448e-06 0.000000e+00  -6.544073e-06 1.289802e-06 0.000000e+00  -7.671451e-06 1.172975e-06 0.000000e+00  -8.675130e-06 1.031997e-06 0.000000e+00  -9.543438e-06 8.701304e-07 0.000000e+00  -1.024870e-05 6.873829e-07 0.000000e+00  -1.075825e-05 4.841098e-07 0.000000e+00  -1.106592e-05 2.643485e-07 0.000000e+00  -1.117444e-05 3.224126e-08 0.000000e+00  -1.105801e-05 -2.111938e-07 0.000000e+00  -1.068712e-05 -4.646202e-07 0.000000e+00  -1.007249e-05 -7.233810e-07 0.000000e+00  -9.233856e-06 -9.828772e-07 0.000000e+00  -8.150490e-06 -1.241421e-06 0.000000e+00  -6.799123e-06 -1.497068e-06 0.000000e+00  -5.208770e-06 -1.745061e-06 0.000000e+00  -3.416811e-06 -1.980892e-06 0.000000e+00  -1.409343e-06 -2.202655e-06 0.000000e+00  8.292231e-07 -2.408271e-06 0.000000e+00  3.252405e-06 -2.593491e-06 0.000000e+00  5.806729e-06 -2.754515e-06 0.000000e+00  8.499420e-06 -2.889732e-06 0.000000e+00  1.133885e-05 -2.997444e-06 0.000000e+00  1.426427e-05 -3.074540e-06 0.000000e+00  1.721008e-05 -3.118554e-06 0.000000e+00  2.017893e-05 -3.128671e-06 0.000000e+00  2.317436e-05 -3.104066e-06 0.000000e+00  2.612690e-05 -3.043347e-06 0.000000e+00  2.896506e-05 -2.945931e-06 0.000000e+00  3.169076e-05 -2.812219e-06 0.000000e+00  3.430683e-05 -2.642644e-06 0.000000e+00  3.674258e-05 -2.437982e-06 0.000000e+00  3.892869e-05 -2.199931e-06 0.000000e+00  4.087148e-05 -1.930361e-06 0.000000e+00  4.257830e-05 -1.631171e-06 0.000000e+00  4.398609e-05 -1.305540e-06 0.000000e+00  4.503678e-05 -9.576148e-07 0.000000e+00  4.574680e-05 -5.907525e-07 0.000000e+00  4.613355e-05 -2.082881e-07 0.000000e+00  4.615074e-05 1.842382e-07 0.000000e+00  4.576076e-05 5.803667e-07 0.000000e+00  4.499527e-05 9.755050e-07 0.000000e+00  4.388658e-05 1.365198e-06 0.000000e+00  4.241353e-05 1.741909e-06 0.000000e+00  4.056685e-05 2.097340e-06 0.000000e+00  3.839699e-05 2.426220e-06 0.000000e+00  3.595417e-05 2.723575e-06 0.000000e+00  3.324844e-05 2.980605e-06 0.000000e+00  3.030400e-05 3.188058e-06 0.000000e+00  2.719066e-05 3.340890e-06 0.000000e+00  2.397639e-05 3.434560e-06 0.000000e+00  2.070436e-05 3.460318e-06 0.000000e+00  1.743203e-05 3.409684e-06 0.000000e+00  1.424374e-05 3.279663e-06 0.000000e+00  1.121871e-05 3.068390e-06 0.000000e+00  8.425265e-06 2.771091e-06 0.000000e+00  5.939707e-06 2.386442e-06 0.000000e+00  3.838146e-06 1.922687e-06 0.000000e+00  2.178760e-06 1.396133e-06 0.000000e+00  1.000811e-06 8.369555e-07 0.000000e+00  3.084450e-07 3.112101e-07 0.000000e+00  3.184870e-08 -5.045889e-08 0.000000e+00  -1.350161e-11 -1.609751e-11 0.000000e+00  4.190581e-12 -3.976833e-12 0.000000e+00  -1.496895e-07 1.480998e-07 0.000000e+00  -6.949407e-07 8.313523e-07 0.000000e+00  -1.742724e-06 1.745926e-06 0.000000e+00  -3.333351e-06 2.714248e-06 0.000000e+00  -5.459743e-06 3.634033e-06 0.000000e+00  -8.079003e-06 4.448091e-06 0.000000e+00  -1.112519e-05 5.126009e-06 0.000000e+00  -1.451856e-05 5.653484e-06 0.000000e+00  -1.817230e-05 6.026152e-06 0.000000e+00  -2.199733e-05 6.245957e-06 0.000000e+00  -2.590565e-05 6.318976e-06 0.000000e+00  -2.981266e-05 6.254061e-06 0.000000e+00  -3.365041e-05 6.064361e-06 0.000000e+00  -3.731101e-05 5.754682e-06 0.000000e+00  -4.074855e-05 5.342895e-06 0.000000e+00  -4.393640e-05 4.846701e-06 0.000000e+00  -4.679784e-05 4.275078e-06 0.000000e+00  -4.925366e-05 3.637929e-06 0.000000e+00  -5.130171e-05 2.953113e-06 0.000000e+00  -5.295761e-05 2.237208e-06 0.000000e+00  -5.416648e-05 1.499284e-06 0.000000e+00  -5.487282e-05 7.489191e-07 0.000000e+00  -5.511537e-05 1.069663e-09 0.000000e+00  -5.494676e-05 -7.311209e-07 0.000000e+00  -5.433239e-05 -1.440259e-06 0.000000e+00  -5.323808e-05 -2.118741e-06 0.000000e+00  -5.173449e-05 -2.756033e-06 0.000000e+00  -4.990139e-05 -3.343640e-06 0.000000e+00  -4.771926e-05 -3.876829e-06 0.000000e+00  -4.516940e-05 -4.350828e-06 0.000000e+00  -4.234263e-05 -4.760154e-06 0.000000e+00  -3.933376e-05 -5.101357e-06 0.000000e+00  -3.613142e-05 -5.372686e-06 0.000000e+00  -3.272514e-05 -5.572390e-06 0.000000e+00  -2.921336e-05 -5.699949e-06 0.000000e+00  -2.569358e-05 -5.756682e-06 0.000000e+00  -2.215546e-05 -5.743571e-06 0.000000e+00  -1.858977e-05 -5.661539e-06 0.000000e+00  -1.509084e-05 -5.514362e-06 0.000000e+00  -1.174781e-05 -5.307351e-06 0.000000e+00  -8.545448e-06 -5.043538e-06 0.000000e+00  -5.469996e-06 -4.725760e-06 0.000000e+00  -2.602175e-06 -4.361045e-06 0.000000e+00  -1.405345e-08 -3.957563e-06 0.000000e+00  2.318379e-06 -3.519437e-06 0.000000e+00  4.416930e-06 -3.050430e-06 0.000000e+00  6.221159e-06 -2.559550e-06 0.000000e+00  7.681668e-06 -2.056524e-06 0.000000e+00  8.832633e-06 -1.545502e-06 0.000000e+00  9.704839e-06 -1.030094e-06 0.000000e+00  1.026153e-05 -5.199740e-07 0.000000e+00  1.047830e-05 -2.511654e-08 0.000000e+00  1.039821e-05 4.513404e-07 0.000000e+00  1.005938e-05 9.069384e-07 0.000000e+00  9.448911e-06 1.332562e-06 0.000000e+00  8.566584e-06 1.719168e-06 0.000000e+00  7.460689e-06 2.065502e-06 0.000000e+00  6.172709e-06 2.371066e-06 0.000000e+00  4.710986e-06 2.628311e-06 0.000000e+00  3.095997e-06 2.830068e-06 0.000000e+00  1.375731e-06 2.977565e-06 0.000000e+00  -4.105548e-07 3.072793e-06 0.000000e+00  -2.238085e-06 3.110474e-06 0.000000e+00  -4.071169e-06 3.085928e-06 0.000000e+00  -5.868713e-06 3.003136e-06 0.000000e+00  -7.600173e-06 2.866752e-06 0.000000e+00  -9.230468e-06 2.674114e-06 0.000000e+00  -1.071527e-05 2.423283e-06 0.000000e+00  -1.202718e-05 2.120884e-06 0.000000e+00  -1.315078e-05 1.774031e-06 0.000000e+00  -1.404723e-05 1.382639e-06 0.000000e+00  -1.467029e-05 9.473766e-07 0.000000e+00  -1.501227e-05 4.770257e-07 0.000000e+00  -1.507834e-05 -1.942102e-08 0.000000e+00  -1.483185e-05 -5.398783e-07 0.000000e+00  -1.423059e-05 -1.081564e-06 0.000000e+00  -1.329092e-05 -1.634381e-06 0.000000e+00  -1.204213e-05 -2.188377e-06 0.000000e+00  -1.045428e-05 -2.740027e-06 0.000000e+00  -8.493547e-06 -3.285238e-06 0.000000e+00  -6.202180e-06 -3.813724e-06 0.000000e+00  -3.634421e-06 -4.315752e-06 0.000000e+00  -7.694968e-07 -4.787333e-06 0.000000e+00  2.416032e-06 -5.224081e-06 0.000000e+00  5.855255e-06 -5.616829e-06 0.000000e+00  9.471265e-06 -5.957401e-06 0.000000e+00  1.327588e-05 -6.242438e-06 0.000000e+00  1.728279e-05 -6.468371e-06 0.000000e+00  2.140500e-05 -6.628511e-06 0.000000e+00  2.554863e-05 -6.717581e-06 0.000000e+00  2.971947e-05 -6.733928e-06 0.000000e+00  3.392474e-05 -6.675850e-06 0.000000e+00  3.806529e-05 -6.540382e-06 0.000000e+00  4.203909e-05 -6.326326e-06 0.000000e+00  4.585123e-05 -6.034625e-06 0.000000e+00  4.950820e-05 -5.666266e-06 0.000000e+00  5.290926e-05 -5.222963e-06 0.00000