<?xml version="1.0"?>
<VTKFile type="UnstructuredGrid"  version="0.1"  >
<UnstructuredGrid>
<Piece  NumberOfPoints="16641" NumberOfCells="32768">
<Points>
<DataArray  type="Float32"  NumberOfComponents="3"  format="ascii">0 0 0  0.0078125 0 0  0.015625 0 0  0.0234375 0 0  0.03125 0 0  0.0390625 0 0  0.046875 0 0  0.0546875 0 0  0.0625 0 0  0.0703125 0 0  0.078125 0 0  0.0859375 0 0  0.09375 0 0  0.101562 0 0  0.109375 0 0  0.117188 0 0  0.125 0 0  0.132812 0 0  0.140625 0 0  0.148438 0 0  0.15625 0 0  0.164062 0 0  0.171875 0 0  0.179688 0 0  0.1875 0 0  0.195312 0 0  0.203125 0 0  0.210938 0 0  0.21875 0 0  0.226562 0 0  0.234375 0 0  0.242188 0 0  0.25 0 0  0.257812 0 0  0.265625 0 0  0.273438 0 0  0.28125 0 0  0.289062 0 0  0.296875 0 0  0.304688 0 0  0.3125 0 0  0.320312 0 0  0.328125 0 0  0.335938 0 0  0.34375 0 0  0.351562 0 0  0.359375 0 0  0.367188 0 0  0.375 0 0  0.382812 0 0  0.390625 0 0  0.398438 0 0  0.40625 0 0  0.414062 0 0  0.421875 0 0  0.429688 0 0  0.4375 0 0  0.445312 0 0  0.453125 0 0  0.460938 0 0  0.46875 0 0  0.476562 0 0  0.484375 0 0  0.492188 0 0  0.5 0 0  0.507812 0 0  0.515625 0 0  0.523438 0 0  0.53125 0 0  0.539062 0 0  0.546875 0 0  0.554688 0 0  0.5625 0 0  0.570312 0 0  0.578125 0 0  0.585938 0 0  0.59375 0 0  0.601562 0 0  0.609375 0 0  0.617188 0 0  0.625 0 0  0.632812 0 0  0.640625 0 0  0.648438 0 0  0.65625 0 0  0.664062 0 0  0.671875 0 0  0.679688 0 0  0.6875 0 0  0.695312 0 0  0.703125 0 0  0.710938 0 0  0.71875 0 0  0.726562 0 0  0.734375 0 0  0.742188 0 0  0.75 0 0  0.757812 0 0  0.765625 0 0  0.773438 0 0  0.78125 0 0  0.789062 0 0  0.796875 0 0  0.804688 0 0  0.8125 0 0  0.820312 0 0  0.828125 0 0  0.835938 0 0  0.84375 0 0  0.851562 0 0  0.859375 0 0  0.867188 0 0  0.875 0 0  0.882812 0 0  0.890625 0 0  0.898438 0 0  0.90625 0 0  0.914062 0 0  0.921875 0 0  0.929688 0 0  0.9375 0 0  0.945312 0 0  0.953125 0 0  0.960938 0 0  0.96875 0 0  0.976562 0 0  0.984375 0 0  0.992188 0 0  1 0 0  0 0.0078125 0  0.0078125 0.0078125 0  0.015625 0.0078125 0  0.0234375 0.0078125 0  0.03125 0.0078125 0  0.0390625 0.0078125 0  0.046875 0.0078125 0  0.0546875 0.0078125 0  0.0625 0.0078125 0  0.0703125 0.0078125 0  0.078125 0.0078125 0  0.0859375 0.0078125 0  0.09375 0.0078125 0  0.101562 0.0078125 0  0.109375 0.0078125 0  0.117188 0.0078125 0  0.125 0.0078125 0  0.132812 0.0078125 0  0.140625 0.0078125 0  0.148438 0.0078125 0  0.15625 0.0078125 0  0.164062 0.0078125 0  0.171875 0.0078125 0  0.179688 0.0078125 0  0.1875 0.0078125 0  0.195312 0.0078125 0  0.203125 0.0078125 0  0.210938 0.0078125 0  0.21875 0.0078125 0  0.226562 0.0078125 0  0.234375 0.0078125 0  0.242188 0.0078125 0  0.25 0.0078125 0  0.257812 0.0078125 0  0.265625 0.0078125 0  0.273438 0.0078125 0  0.28125 0.0078125 0  0.289062 0.0078125 0  0.296875 0.0078125 0  0.304688 0.0078125 0  0.3125 0.0078125 0  0.320312 0.0078125 0  0.328125 0.0078125 0  0.335938 0.0078125 0  0.34375 0.0078125 0  0.351562 0.0078125 0  0.359375 0.0078125 0  0.367188 0.0078125 0  0.375 0.0078125 0  0.382812 0.0078125 0  0.390625 0.0078125 0  0.398438 0.0078125 0  0.40625 0.0078125 0  0.414062 0.0078125 0  0.421875 0.0078125 0  0.429688 0.0078125 0  0.4375 0.0078125 0  0.445312 0.0078125 0  0.453125 0.0078125 0  0.460938 0.0078125 0  0.46875 0.0078125 0  0.476562 0.0078125 0  0.484375 0.0078125 0  0.492188 0.0078125 0  0.5 0.0078125 0  0.507812 0.0078125 0  0.515625 0.0078125 0  0.523438 0.0078125 0  0.53125 0.0078125 0  0.539062 0.0078125 0  0.546875 0.0078125 0  0.554688 0.0078125 0  0.5625 0.0078125 0  0.570312 0.0078125 0  0.578125 0.0078125 0  0.585938 0.0078125 0  0.59375 0.0078125 0  0.601562 0.0078125 0  0.609375 0.0078125 0  0.617188 0.0078125 0  0.625 0.0078125 0  0.632812 0.0078125 0  0.640625 0.0078125 0  0.648438 0.0078125 0  0.65625 0.0078125 0  0.664062 0.0078125 0  0.671875 0.0078125 0  0.679688 0.0078125 0  0.6875 0.0078125 0  0.695312 0.0078125 0  0.703125 0.0078125 0  0.710938 0.0078125 0  0.71875 0.0078125 0  0.726562 0.0078125 0  0.734375 0.0078125 0  0.742188 0.0078125 0  0.75 0.0078125 0  0.757812 0.0078125 0  0.765625 0.0078125 0  0.773438 0.0078125 0  0.78125 0.0078125 0  0.789062 0.0078125 0  0.796875 0.0078125 0  0.804688 0.0078125 0  0.8125 0.0078125 0  0.820312 0.0078125 0  0.828125 0.0078125 0  0.835938 0.0078125 0  0.84375 0.0078125 0  0.851562 0.0078125 0  0.859375 0.0078125 0  0.867188 0.0078125 0  0.875 0.0078125 0  0.882812 0.0078125 0  0.890625 0.0078125 0  0.898438 0.0078125 0  0.90625 0.0078125 0  0.914062 0.0078125 0  0.921875 0.0078125 0  0.929688 0.0078125 0  0.9375 0.0078125 0  0.945312 0.0078125 0  0.953125 0.0078125 0  0.960938 0.0078125 0  0.96875 0.0078125 0  0.976562 0.0078125 0  0.984375 0.0078125 0  0.992188 0.0078125 0  1 0.0078125 0  0 0.015625 0  0.0078125 0.015625 0  0.015625 0.015625 0  0.0234375 0.015625 0  0.03125 0.015625 0  0.0390625 0.015625 0  0.046875 0.015625 0  0.0546875 0.015625 0  0.0625 0.015625 0  0.0703125 0.015625 0  0.078125 0.015625 0  0.0859375 0.015625 0  0.09375 0.015625 0  0.101562 0.015625 0  0.109375 0.015625 0  0.117188 0.015625 0  0.125 0.015625 0  0.132812 0.015625 0  0.140625 0.015625 0  0.148438 0.015625 0  0.15625 0.015625 0  0.164062 0.015625 0  0.171875 0.015625 0  0.179688 0.015625 0  0.1875 0.015625 0  0.195312 0.015625 0  0.203125 0.015625 0  0.210938 0.015625 0  0.21875 0.015625 0  0.226562 0.015625 0  0.234375 0.015625 0  0.242188 0.015625 0  0.25 0.015625 0  0.257812 0.015625 0  0.265625 0.015625 0  0.273438 0.015625 0  0.28125 0.015625 0  0.289062 0.015625 0  0.296875 0.015625 0  0.304688 0.015625 0  0.3125 0.015625 0  0.320312 0.015625 0  0.328125 0.015625 0  0.335938 0.015625 0  0.34375 0.015625 0  0.351562 0.015625 0  0.359375 0.015625 0  0.367188 0.015625 0  0.375 0.015625 0  0.382812 0.015625 0  0.390625 0.015625 0  0.398438 0.015625 0  0.40625 0.015625 0  0.414062 0.015625 0  0.421875 0.015625 0  0.429688 0.015625 0  0.4375 0.015625 0  0.445312 0.015625 0  0.453125 0.015625 0  0.460938 0.015625 0  0.46875 0.015625 0  0.476562 0.015625 0  0.484375 0.015625 0  0.492188 0.015625 0  0.5 0.015625 0  0.507812 0.015625 0  0.515625 0.015625 0  0.523438 0.015625 0  0.53125 0.015625 0  0.539062 0.015625 0  0.546875 0.015625 0  0.554688 0.015625 0  0.5625 0.015625 0  0.570312 0.015625 0  0.578125 0.015625 0  0.585938 0.015625 0  0.59375 0.015625 0  0.601562 0.015625 0  0.609375 0.015625 0  0.617188 0.015625 0  0.625 0.015625 0  0.632812 0.015625 0  0.640625 0.015625 0  0.648438 0.015625 0  0.65625 0.015625 0  0.664062 0.015625 0  0.671875 0.015625 0  0.679688 0.015625 0  0.6875 0.015625 0  0.695312 0.015625 0  0.703125 0.015625 0  0.710938 0.015625 0  0.71875 0.015625 0  0.726562 0.015625 0  0.734375 0.015625 0  0.742188 0.015625 0  0.75 0.015625 0  0.757812 0.015625 0  0.765625 0.015625 0  0.773438 0.015625 0  0.78125 0.015625 0  0.789062 0.015625 0  0.796875 0.015625 0  0.804688 0.015625 0  0.8125 0.015625 0  0.820312 0.015625 0  0.828125 0.015625 0  0.835938 0.015625 0  0.84375 0.015625 0  0.851562 0.015625 0  0.859375 0.015625 0  0.867188 0.015625 0  0.875 0.015625 0  0.882812 0.015625 0  0.890625 0.015625 0  0.898438 0.015625 0  0.90625 0.015625 0  0.914062 0.015625 0  0.921875 0.015625 0  0.929688 0.015625 0  0.9375 0.015625 0  0.945312 0.015625 0  0.953125 0.015625 0  0.960938 0.015625 0  0.96875 0.015625 0  0.976562 0.015625 0  0.984375 0.015625 0  0.992188 0.015625 0  1 0.015625 0  0 0.0234375 0  0.0078125 0.0234375 0  0.015625 0.0234375 0  0.0234375 0.0234375 0  0.03125 0.0234375 0  0.0390625 0.0234375 0  0.046875 0.0234375 0  0.0546875 0.0234375 0  0.0625 0.0234375 0  0.0703125 0.0234375 0  0.078125 0.0234375 0  0.0859375 0.0234375 0  0.09375 0.0234375 0  0.101562 0.0234375 0  0.109375 0.0234375 0  0.117188 0.0234375 0  0.125 0.0234375 0  0.132812 0.0234375 0  0.140625 0.0234375 0  0.148438 0.0234375 0  0.15625 0.0234375 0  0.164062 0.0234375 0  0.171875 0.0234375 0  0.179688 0.0234375 0  0.1875 0.0234375 0  0.195312 0.0234375 0  0.203125 0.0234375 0  0.210938 0.0234375 0  0.21875 0.0234375 0  0.226562 0.0234375 0  0.234375 0.0234375 0  0.242188 0.0234375 0  0.25 0.0234375 0  0.257812 0.0234375 0  0.265625 0.0234375 0  0.273438 0.0234375 0  0.28125 0.0234375 0  0.289062 0.0234375 0  0.296875 0.0234375 0  0.304688 0.0234375 0  0.3125 0.0234375 0  0.320312 0.0234375 0  0.328125 0.0234375 0  0.335938 0.0234375 0  0.34375 0.0234375 0  0.351562 0.0234375 0  0.359375 0.0234375 0  0.367188 0.0234375 0  0.375 0.0234375 0  0.382812 0.0234375 0  0.390625 0.0234375 0  0.398438 0.0234375 0  0.40625 0.0234375 0  0.414062 0.0234375 0  0.421875 0.0234375 0  0.429688 0.0234375 0  0.4375 0.0234375 0  0.445312 0.0234375 0  0.453125 0.0234375 0  0.460938 0.0234375 0  0.46875 0.0234375 0  0.476562 0.0234375 0  0.484375 0.0234375 0  0.492188 0.0234375 0  0.5 0.0234375 0  0.507812 0.0234375 0  0.515625 0.0234375 0  0.523438 0.0234375 0  0.53125 0.0234375 0  0.539062 0.0234375 0  0.546875 0.0234375 0  0.554688 0.0234375 0  0.5625 0.0234375 0  0.570312 0.0234375 0  0.578125 0.0234375 0  0.585938 0.0234375 0  0.59375 0.0234375 0  0.601562 0.0234375 0  0.609375 0.0234375 0  0.617188 0.0234375 0  0.625 0.0234375 0  0.632812 0.0234375 0  0.640625 0.0234375 0  0.648438 0.0234375 0  0.65625 0.0234375 0  0.664062 0.0234375 0  0.671875 0.0234375 0  0.679688 0.0234375 0  0.6875 0.0234375 0  0.695312 0.0234375 0  0.703125 0.0234375 0  0.710938 0.0234375 0  0.71875 0.0234375 0  0.726562 0.0234375 0  0.734375 0.0234375 0  0.742188 0.0234375 0  0.75 0.0234375 0  0.757812 0.0234375 0  0.765625 0.0234375 0  0.773438 0.0234375 0  0.78125 0.0234375 0  0.789062 0.0234375 0  0.796875 0.0234375 0  0.804688 0.0234375 0  0.8125 0.0234375 0  0.820312 0.0234375 0  0.828125 0.0234375 0  0.835938 0.0234375 0  0.84375 0.0234375 0  0.851562 0.0234375 0  0.859375 0.0234375 0  0.867188 0.0234375 0  0.875 0.0234375 0  0.882812 0.0234375 0  0.890625 0.0234375 0  0.898438 0.0234375 0  0.90625 0.0234375 0  0.914062 0.0234375 0  0.921875 0.0234375 0  0.929688 0.0234375 0  0.9375 0.0234375 0  0.945312 0.0234
[...]
<PointData  Vectors="u"> 
<DataArray  type="Float32"  Name="u"  NumberOfComponents="3" format="ascii">0.000000e+00 0.000000e+00 0.000000e+00  0.000000e+00 0.000000e+00 0.000000e+00  0.000000e+00 0.000000e+00 0.000000e+00  0.000000e+00 0.000000e+00 0.000000e+00  0.000000e+00 0.000000e+00 0.000000e+00  0.000000e+00 0.000000e+00 0.000000e+00  0.000000e+00 0.000000e+00 0.000000e+00  0.000000e+00 0.000000e+00 0.000000e+00  0.000000e+00 0.000000e+00 0.000000e+00  0.000000e+00 0.000000e+00 0.000000e+00  0.000000e+00 0.000000e+00 0.000000e+00  0.000000e+00 0.000000e+00 0.000000e+00  0.000000e+00 0.000000e+00 0.000000e+00  0.000000e+00 0.000000e+00 0.000000e+00  0.000000e+00 0.000000e+00 0.000000e+00  0.000000e+00 0.000000e+00 0.000000e+00  0.000000e+00 0.000000e+00 0.000000e+00  0.000000e+00 0.000000e+00 0.000000e+00  0.000000e+00 0.000000e+00 0.000000e+00  0.000000e+00 0.000000e+00 0.000000e+00  0.000000e+00 0.000000e+00 0.000000e+00  0.000000e+00 0.000000e+00 0.000000e+00  0.000000e+00 0.000000e+00 0.000000e+00  0.000000e+00 0.000000e+00 0.000000e+00  0.000000e+00 0.000000e+00 0.000000e+00  0.000000e+00 0.000000e+00 0.000000e+00  0.000000e+00 0.000000e+00 0.000000e+00  0.000000e+00 0.000000e+00 0.000000e+00  0.000000e+00 0.000000e+00 0.000000e+00  0.000000e+00 0.000000e+00 0.000000e+00  0.000000e+00 0.000000e+00 0.000000e+00  0.000000e+00 0.000000e+00 0.000000e+00  0.000000e+00 0.000000e+00 0.000000e+00  0.000000e+00 0.000000e+00 0.000000e+00  0.000000e+00 0.000000e+00 0.000000e+00  0.000000e+00 0.000000e+00 0.000000e+00  0.000000e+00 0.000000e+00 0.000000e+00  0.000000e+00 0.000000e+00 0.000000e+00  0.000000e+00 0.000000e+00 0.000000e+00  0.000000e+00 0.000000e+00 0.000000e+00  0.000000e+00 0.000000e+00 0.000000e+00  0.000000e+00 0.000000e+00 0.000000e+00  0.000000e+00 0.000000e+00 0.000000e+00  0.000000e+00 0.000000e+00 0.000000e+00  0.000000e+00 0.000000e+00 0.000000e+00  0.000000e+00 0.000000e+00 0.000000e+00  0.000000e+00 0.000000e+00 0.000000e+00  0.000000e+00 0.000000e+00 0.000000e+00  0.000000e+00 0.000000e+00 0.000000e+00  0.000000e+00 0.000000e+00 0.000000e+00  0.000000e+00 0.000000e+00 0.000000e+00  0.000000e+00 0.000000e+00 0.000000e+00  0.000000e+00 0.000000e+00 0.000000e+00  0.000000e+00 0.000000e+00 0.000000e+00  0.000000e+00 0.000000e+00 0.000000e+00  0.000000e+00 0.000000e+00 0.000000e+00  0.000000e+00 0.000000e+00 0.000000e+00  0.000000e+00 0.000000e+00 0.000000e+00  0.000000e+00 0.000000e+00 0.000000e+00  0.000000e+00 0.000000e+00 0.000000e+00  0.000000e+00 0.000000e+00 0.000000e+00  0.000000e+00 0.000000e+00 0.000000e+00  0.000000e+00 0.000000e+00 0.000000e+00  0.000000e+00 0.000000e+00 0.000000e+00  0.000000e+00 0.000000e+00 0.000000e+00  0.000000e+00 0.000000e+00 0.000000e+00  0.000000e+00 0.000000e+00 0.000000e+00  0.000000e+00 0.000000e+00 0.000000e+00  0.000000e+00 0.000000e+00 0.000000e+00  0.000000e+00 0.000000e+00 0.000000e+00  0.000000e+00 0.000000e+00 0.000000e+00  0.000000e+00 0.000000e+00 0.000000e+00  0.000000e+00 0.000000e+00 0.000000e+00  0.000000e+00 0.000000e+00 0.000000e+00  0.000000e+00 0.000000e+00 0.000000e+00  0.000000e+00 0.000000e+00 0.000000e+00  0.000000e+00 0.000000e+00 0.000000e+00  0.000000e+00 0.000000e+00 0.000000e+00  0.000000e+00 0.000000e+00 0.000000e+00  0.000000e+00 0.000000e+00 0.000000e+00  0.000000e+00 0.000000e+00 0.000000e+00  0.000000e+00 0.000000e+00 0.000000e+00  0.000000e+00 0.000000e+00 0.000000e+00  0.000000e+00 0.000000e+00 0.000000e+00  0.000000e+00 0.000000e+00 0.000000e+00  0.000000e+00 0.000000e+00 0.000000e+00  0.000000e+00 0.000000e+00 0.000000e+00  0.000000e+00 0.000000e+00 0.000000e+00  0.000000e+00 0.000000e+00 0.000000e+00  0.000000e+00 0.000000e+00 0.000000e+00  0.000000e+00 0.000000e+00 0.000000e+00  0.000000e+00 0.000000e+00 0.000000e+00  0.000000e+00 0.000000e+00 0.000000e+00  0.000000e+00 0.000000e+00 0.000000e+00  0.000000e+00 0.000000e+00 0.000000e+00  0.000000e+00 0.000000e+00 0.000000e+00  0.000000e+00 0.000000e+00 0.000000e+00  0.000000e+00 0.000000e+00 0.000000e+00  0.000000e+00 0.000000e+00 0.000000e+00  0.000000e+00 0.000000e+00 0.000000e+00  0.000000e+00 0.000000e+00 0.000000e+00  0.000000e+00 0.000000e+00 0.000000e+00  0.000000e+00 0.000000e+00 0.000000e+00  0.000000e+00 0.000000e+00 0.000000e+00  0.000000e+00 0.000000e+00 0.000000e+00  0.000000e+00 0.000000e+00 0.000000e+00  0.000000e+00 0.000000e+00 0.000000e+00  0.000000e+00 0.000000e+00 0.000000e+00  0.000000e+00 0.000000e+00 0.000000e+00  0.000000e+00 0.000000e+00 0.000000e+00  0.000000e+00 0.000000e+00 0.000000e+00  0.000000e+00 0.000000e+00 0.000000e+00  0.000000e+00 0.000000e+00 0.000000e+00  0.000000e+00 0.000000e+00 0.000000e+00  0.000000e+00 0.000000e+00 0.000000e+00  0.000000e+00 0.000000e+00 0.000000e+00  0.000000e+00 0.000000e+00 0.000000e+00  0.000000e+00 0.000000e+00 0.000000e+00  0.000000e+00 0.000000e+00 0.000000e+00  0.000000e+00 0.000000e+00 0.000000e+00  0.000000e+00 0.000000e+00 0.000000e+00  0.000000e+00 0.000000e+00 0.000000e+00  0.000000e+00 0.000000e+00 0.000000e+00  0.000000e+00 0.000000e+00 0.000000e+00  0.000000e+00 0.000000e+00 0.000000e+00  0.000000e+00 0.000000e+00 0.000000e+00  0.000000e+00 0.000000e+00 0.000000e+00  0.000000e+00 0.000000e+00 0.000000e+00  0.000000e+00 0.000000e+00 0.000000e+00  0.000000e+00 0.000000e+00 0.000000e+00  1.671217e-05 -1.672082e-05 0.000000e+00  8.759832e-05 -5.235596e-05 0.000000e+00  2.183515e-04 -8.192688e-05 0.000000e+00  3.941223e-04 -1.019175e-04 0.000000e+00  5.983863e-04 -1.129298e-04 0.000000e+00  8.159657e-04 -1.164247e-04 0.000000e+00  1.034227e-03 -1.139309e-04 0.000000e+00  1.243117e-03 -1.068180e-04 0.000000e+00  1.434911e-03 -9.626804e-05 0.000000e+00  1.603911e-03 -8.328157e-05 0.000000e+00  1.746145e-03 -6.869048e-05 0.000000e+00  1.859066e-03 -5.317019e-05 0.000000e+00  1.941279e-03 -3.725073e-05 0.000000e+00  1.992274e-03 -2.132747e-05 0.000000e+00  2.012187e-03 -5.672441e-06 0.000000e+00  2.001578e-03 9.553237e-06 0.000000e+00  1.961230e-03 2.428548e-05 0.000000e+00  1.891983e-03 3.854215e-05 0.000000e+00  1.794587e-03 5.240693e-05 0.000000e+00  1.669598e-03 6.601277e-05 0.000000e+00  1.517295e-03 7.952548e-05 0.000000e+00  1.337633e-03 9.312806e-05 0.000000e+00  1.130221e-03 1.070065e-04 0.000000e+00  8.943310e-04 1.213374e-04 0.000000e+00  6.289238e-04 1.362783e-04 0.000000e+00  3.326918e-04 1.519600e-04 0.000000e+00  4.116228e-06 1.684819e-04 0.000000e+00  -3.584700e-04 1.859095e-04 0.000000e+00  -7.568157e-04 2.042736e-04 0.000000e+00  -1.192685e-03 2.235711e-04 0.000000e+00  -1.667792e-03 2.437671e-04 0.000000e+00  -2.183741e-03 2.647970e-04 0.000000e+00  -2.741971e-03 2.865685e-04 0.000000e+00  -3.343702e-03 3.089639e-04 0.000000e+00  -3.989885e-03 3.318417e-04 0.000000e+00  -4.681160e-03 3.550379e-04 0.000000e+00  -5.417812e-03 3.783667e-04 0.000000e+00  -6.199728e-03 4.016218e-04 0.000000e+00  -7.026360e-03 4.245767e-04 0.000000e+00  -7.896687e-03 4.469862e-04 0.000000e+00  -8.809184e-03 4.685873e-04 0.000000e+00  -9.761788e-03 4.891011e-04 0.000000e+00  -1.075188e-02 5.082350e-04 0.000000e+00  -1.177624e-02 5.256854e-04 0.000000e+00  -1.283108e-02 5.411410e-04 0.000000e+00  -1.391198e-02 5.542860e-04 0.000000e+00  -1.501393e-02 5.648048e-04 0.000000e+00  -1.613132e-02 5.723856e-04 0.000000e+00  -1.725797e-02 5.767256e-04 0.000000e+00  -1.838713e-02 5.775354e-04 0.000000e+00  -1.951155e-02 5.745438e-04 0.000000e+00  -2.062350e-02 5.675033e-04 0.000000e+00  -2.171483e-02 5.561941e-04 0.000000e+00  -2.277704e-02 5.404295e-04 0.000000e+00  -2.380135e-02 5.200602e-04 0.000000e+00  -2.477877e-02 4.949790e-04 0.000000e+00  -2.570018e-02 4.651244e-04 0.000000e+00  -2.655645e-02 4.304847e-04 0.000000e+00  -2.733853e-02 3.911016e-04 0.000000e+00  -2.803752e-02 3.470729e-04 0.000000e+00  -2.864485e-02 2.985550e-04 0.000000e+00  -2.915230e-02 2.457655e-04 0.000000e+00  -2.955219e-02 1.889838e-04 0.000000e+00  -2.983748e-02 1.285525e-04 0.000000e+00  -3.000186e-02 6.487727e-05 0.000000e+00  -3.003985e-02 -1.574316e-06 0.000000e+00  -2.994700e-02 -7.027423e-05 0.000000e+00  -2.971987e-02 -1.406370e-04 0.000000e+00  -2.935622e-02 -2.120239e-04 0.000000e+00  -2.885507e-02 -2.837479e-04 0.000000e+00  -2.821677e-02 -3.550808e-04 0.000000e+00  -2.744307e-02 -4.252609e-04 0.000000e+00  -2.653717e-02 -4.935029e-04 0.000000e+00  -2.550374e-02 -5.590087e-04 0.000000e+00  -2.434894e-02 -6.209793e-04 0.000000e+00  -2.308038e-02 -6.786291e-04 0.000000e+00  -2.170713e-02 -7.311996e-04 0.000000e+00  -2.023957e-02 -7.779751e-04 0.000000e+00  -1.868940e-02 -8.182980e-04 0.000000e+00  -1.706941e-02 -8.515843e-04 0.000000e+00  -1.539341e-02 -8.773389e-04 0.000000e+00  -1.367603e-02 -8.951692e-04 0.000000e+00  -1.193250e-02 -9.047975e-04 0.000000e+00  -1.017845e-02 -9.060714e-04 0.000000e+00  -8.429674e-03 -8.989713e-04 0.000000e+00  -6.701894e-03 -8.836148e-04 0.000000e+00  -5.010480e-03 -8.602580e-04 0.000000e+00  -3.370220e-03 -8.292929e-04 0.000000e+00  -1.795066e-03 -7.912405e-04 0.000000e+00  -2.979120e-04 -7.467413e-04 0.000000e+00  1.109625e-03 -6.965411e-04 0.000000e+00  2.417379e-03 -6.414741e-04 0.000000e+00  3.616791e-03 -5.824435e-04 0.000000e+00  4.701022e-03 -5.203997e-04 0.000000e+00  5.665024e-03 -4.563173e-04 0.000000e+00  6.505574e-03 -3.911721e-04 0.000000e+00  7.221261e-03 -3.259174e-04 0.000000e+00  7.812436e-03 -2.614629e-04 0.000000e+00  8.281121e-03 -1.986542e-04 0.000000e+00  8.630879e-03 -1.382559e-04 0.000000e+00  8.866657e-03 -8.093711e-05 0.000000e+00  8.994607e-03 -2.726094e-05 0.000000e+00  9.021881e-03 2.232267e-05 0.000000e+00  8.956422e-03 6.748019e-05 0.000000e+00  8.806744e-03 1.079942e-04 0.000000e+00  8.581720e-03 1.437596e-04 0.000000e+00  8.290372e-03 1.747767e-04 0.000000e+00  7.941682e-03 2.011414e-04 0.000000e+00  7.544415e-03 2.230329e-04 0.000000e+00  7.106974e-03 2.406983e-04 0.000000e+00  6.637283e-03 2.544356e-04 0.000000e+00  6.142703e-03 2.645732e-04 0.000000e+00  5.629993e-03 2.714469e-04 0.000000e+00  5.105314e-03 2.753735e-04 0.000000e+00  4.574293e-03 2.766204e-04 0.000000e+00  4.042141e-03 2.753717e-04 0.000000e+00  3.513842e-03 2.716903e-04 0.000000e+00  2.994410e-03 2.654770e-04 0.000000e+00  2.489231e-03 2.564290e-04 0.000000e+00  2.004458e-03 2.440011e-04 0.000000e+00  1.547465e-03 2.273793e-04 0.000000e+00  1.127305e-03 2.054844e-04 0.000000e+00  7.550615e-04 1.770478e-04 0.000000e+00  4.438790e-04 1.408681e-04 0.000000e+00  2.080415e-04 9.651290e-05 0.000000e+00  6.012261e-05 4.640296e-05 0.000000e+00  1.760296e-06 1.703247e-06 0.000000e+00  0.000000e+00 0.000000e+00 0.000000e+00  0.000000e+00 0.000000e+00 0.000000e+00  5.235095e-05 -8.759922e-05 0.000000e+00  2.028501e-04 -2.027953e-04 0.000000e+00  4.407204e-04 -2.997434e-04 0.000000e+00  7.449230e-04 -3.668936e-04 0.000000e+00  1.091742e-03 -4.043888e-04 0.000000e+00  1.458019e-03 -4.160196e-04 0.000000e+00  1.823462e-03 -4.063753e-04 0.000000e+00  2.171186e-03 -3.799069e-04 0.000000e+00  2.487741e-03 -3.406307e-04 0.000000e+00  2.762849e-03 -2.920410e-04 0.000000e+00  2.989028e-03 -2.370977e-04 0.000000e+00  3.161183e-03 -1.782381e-04 0.000000e+00  3.276176e-03 -1.173980e-04 0.000000e+00  3.332413e-03 -5.604038e-05 0.000000e+00  3.329443e-03 4.810278e-06 0.000000e+00  3.267590e-03 6.452731e-05 0.000000e+00  3.147619e-03 1.228345e-04 0.000000e+00  2.970444e-03 1.797531e-04 0.000000e+00  2.736890e-03 2.355450e-04 0.000000e+00  2.447493e-03 2.906530e-04 0.000000e+00  2.102371e-03 3.456417e-04 0.000000e+00  1.701132e-03 4.011407e-04 0.000000e+00  1.242843e-03 4.577921e-04 0.000000e+00  7.260358e-04 5.162056e-04 0.000000e+00  1.487538e-04 5.769212e-04 0.000000e+00  -4.913676e-04 6.403815e-04 0.000000e+00  -1.197004e-03 7.069125e-04 0.000000e+00  -1.971026e-03 7.767131e-04 0.000000e+00  -2.816379e-03 8.498520e-04 0.000000e+00  -3.735961e-03 9.262693e-04 0.000000e+00  -4.732500e-03 1.005782e-03 0.000000e+00  -5.808441e-03 1.088093e-03 0.000000e+00  -6.965841e-03 1.172798e-03 0.000000e+00  -8.206265e-03 1.259392e-03 0.000000e+00  -9.530696e-03 1.347281e-03 0.000000e+00  -1.093945e-02 1.435781e-03 0.000000e+00  -1.243210e-02 1.524130e-03 0.000000e+00  -1.400741e-02 1.611488e-03 0.000000e+00  -1.566322e-02 1.696945e-03 0.000000e+00  -1.739648e-02 1.779524e-03 0.000000e+00  -1.920312e-02 1.858191e-03 0.000000e+00  -2.107804e-02 1.931864e-03 0.000000e+00  -2.301508e-02 1.999420e-03 0.000000e+00  -2.500700e-02 2.059710e-03 0.000000e+00  -2.704550e-02 2.111572e-03 0.000000e+00  -2.912117e-02 2.153843e-03 0.000000e+00  -3.122359e-02 2.185383e-03 0.000000e+00  -3.334135e-02 2.205081e-03 0.000000e+00  -3.546208e-02 2.211881e-03 0.000000e+00  -3.757257e-02 2.204797e-03 0.000000e+00  -3.965881e-02 2.182927e-03 0.000000e+00  -4.170617e-02 2.145476e-03 0.000000e+00  -4.369946e-02 2.091767e-03 0.000000e+00  -4.562306e-02 2.021261e-03 0.000000e+00  -4.746111e-02 1.933565e-03 0.000000e+00  -4.919764e-02 1.828455e-03 0.000000e+00  -5.081672e-02 1.705876e-03 0.000000e+00  -5.230262e-02 1.565964e-03 0.000000e+00  -5.364004e-02 1.409045e-03 0.000000e+00  -5.481421e-02 1.235649e-03 0.000000e+00  -5.581112e-02 1.046510e-03 0.000000e+00  -5.661768e-02 8.425747e-04 0.000000e+00  -5.722189e-02 6.249991e-04 0.000000e+00  -5.761303e-02 3.951503e-04 0.000000e+00  -5.778180e-02 1.546019e-04 0.000000e+00  -5.772050e-02 -9.487139e-05 0.000000e+00  -5.742319e-02 -3.513031e-04 0.000000e+00  -5.688579e-02 -6.125472e-04 0.000000e+00  -5.610624e-02 -8.762941e-04 0.000000e+00  -5.508459e-02 -1.140090e-03 0.000000e+00  -5.382311e-02 -1.401361e-03 0.000000e+00  -5.232634e-02 -1.657439e-03 0.000000e+00  -5.060113e-02 -1.905597e-03 0.000000e+00  -4.865667e-02 -2.143081e-03 0.000000e+00  -4.650447e-02 -2.367155e-03 0.000000e+00  -4.415833e-02 -2.575138e-03 0.000000e+00  -4.163421e-02 -2.764457e-03 0.000000e+00  -3.895019e-02 -2.932690e-03 0.000000e+00  -3.612624e-02 -3.077617e-03 0.000000e+00  -3.318407e-02 -3.197272e-03 0.000000e+00  -3.014692e-02 -3.289985e-03 0.000000e+00  -2.703924e-02 -3.354432e-03 0.000000e+00  -2.388643e-02 -3.389669e-03 0.000000e+00  -2.071452e-02 -3.395172e-03 0.000000e+00  -1.754981e-02 -3.370856e-03 0.000000e+00  -1.441849e-02 -3.317094e-03 0.000000e+00  -1.134631e-02 -3.234725e-03 0.000000e+00  -8.358142e-03 -3.125041e-03 0.000000e+00  -5.477640e-03 -2.989778e-03 0.000000e+00  -2.726883e-03 -2.831080e-03 0.000000e+00  -1.260322e-04 -2.651460e-03 0.000000e+00  2.306965e-03 -2.453747e-03 0.000000e+00  4.556634e-03 -2.241026e-03 0.000000e+00  6.610183e-03 -2.016569e-03 0.000000e+00  8.457653e-03 -1.783757e-03 0.000000e+00  1.009202e-02 -1.546010e-03 0.000000e+00  1.150920e-02 -1.306702e-03 0.000000e+00  1.270806e-02 -1.069089e-03 0.000000e+00  1.369028e-02 -8.362416e-04 0.000000e+00  1.446022e-02 -6.109749e-04 0.000000e+00  1.502469e-02 -3.958000e-04 0.000000e+00  1.539273e-02 -1.928786e-04 0.000000e+00  1.557529e-02 -3.991967e-06 0.000000e+00  1.558487e-02 1.694781e-04 0.000000e+00  1.543527e-02 3.265555e-04 0.000000e+00  1.514115e-02 4.666635e-04 0.000000e+00  1.471771e-02 5.896066e-04 0.000000e+00  1.418041e-02 6.955409e-04 0.000000e+00  1.354457e-02 7.849341e-04 0.000000e+00  1.282519e-02 8.585142e-04 0.000000e+00  1.203666e-02 9.172084e-04 0.000000e+00  1.119263e-02 9.620710e-04 0.000000e+00  1.030593e-02 9.942000e-04 0.000000e+00  9.388494e-03 1.014641e-03 0.000000e+00  8.451508e-03 1.024279e-03 0.000000e+00  7.505534e-03 1.023718e-03 0.000000e+00  6.560814e-03 1.013152e-03 0.000000e+00  5.627660e-03 9.922299e-04 0.000000e+00  4.716949e-03 9.599290e-04 0.000000e+00  3.840689e-03 9.144535e-04 0.000000e+00  3.012611e-03 8.532003e-04 0.000000e+00  2.248677e-03 7.728633e-04 0.000000e+00  1.567289e-03 6.698328e-04 0.000000e+00  9.888412e-04 5.412193e-04 0.000000e+00  5.338706e-04 3.872684e-04 0.000000e+00  2.189080e-04 2.169354e-04 0.000000e+00  4.733803e-05 6.064544e-05 0.000000e+00  0.000000e+00 0.000000e+00 0.000000e+00  0.000000e+00 0.000000e+00 0.000000e+00  8.215646e-05 -2.185601e-04 0.000000e+00  3.006755e-04 -4.409721e-04 0.000000e+00  6.236507e-04 -6.222259e-04 0.000000e+00  1.021610e-03 -7.476111e-04 0.000000e+00  1.465609e-03 -8.169636e-04 0.000000e+00  1.928004e-03 -8.361569e-04 0.000000e+00  2.384075e-03 -8.130676e-04 0.000000e+00  2.812692e-03 -7.558203e-04 0.000000e+00  3.196556e-03 -6.720336e-04 0.000000e+00  3.522050e-03 -5.685108e-04 0.000000e+00  3.778917e-03 -4.511200e-04 0.000000e+00  3.959833e-03 -3.247592e-04 0.000000e+00  4.059923e-03 -1.933648e-04 0.000000e+00  4.076283e-03 -5.994599e-05 0.000000e+00  4.007490e-03 7.335943e-05 0.000000e+00  3.853151e-03 2.052110e-04 0.000000e+00  3.613484e-03 3.349760e-04 0.000000e+00  3.288954e-03 4.626255e-04 0.000000e+00  2.879961e-03 5.886207e-04 0.000000e+00  2.386600e-03 7.137933e-04 0.000000e+00  1.808482e-03 8.392244e-04 0.000000e+00  1.144633e-03 9.661284e-04 0.000000e+00  3.934412e-04 1.095745e-03 0.000000e+00  -4.473163e-04 1.229247e-03 0.000000e+00  -1.380413e-03 1.367659e-03 0.000000e+00  -2.409064e-03 1.511802e-03 0.000000e+00  -3.536787e-03 1.662251e-03 0.000000e+00  -4.767242e-03 1.819312e-03 0.000000e+00  -6.104069e-03 1.983011e-03 0.000000e+00  -7.550708e-03 2.153102e-03 0.000000e+00  -9.110238e-03 2.329070e-03 0.000000e+00  -1.078521e-02 2.510153e-03 0.000000e+00  -1.257750e-02 2.695357e-03 0.000000e+00  -1.448816e-02 2.883472e-03 0.000000e+00  -1.651731e-02 3.073092e-03 0.000000e+00  -1.866401e-02 3.262625e-03 0.000000e+00  -2.092614e-02 3.450311e-03 0.000000e+00  -2.330035e-02 3.634239e-03 0.000000e+00  -2.578193e-02 3.812354e-03 0.000000e+00  -2.836480e-02 3.982486e-03 0.000000e+00  -3.104145e-02 4.142358e-03 0.000000e+00  -3.380287e-02 4.289619e-03 0.000000e+00  -3.663860e-02 4.421867e-03 0.000000e+00  -3.953673e-02 4.536676e-03 0.000000e+00  -4.248390e-02 4.631631e-03 0.000000e+00  -4.546541e-02 4.704361e-03 0.000000e+00  -4.846524e-02 4.752577e-03 0.000000e+00  -5.146622e-02 4.774102e-03 0.000000e+00  -5.445011e-02 4.766912e-03 0.000000e+00  -5.739773e-02 4.729172e-03 0.000000e+00  -6.028917e-02 4.659263e-03 0.000000e+00  -6.310393e-02 4.555821e-03 0.000000e+00  -6.582111e-02 4.417762e-03 0.000000e+00  -6.841961e-02 4.244310e-03 0.000000e+00  -7.087835e-02 4.035018e-03 0.000000e+00  -7.317646e-02 3.789793e-03 0.000000e+00  -7.529351e-02 3.508904e-03 0.000000e+00  -7.720972e-02 3.193005e-03 0.000000e+00  -7.890616e-02 2.843136e-03 0.000000e+00  -8.036496e-02 2.460736e-03 0.000000e+00  -8.156954e-02 2.047640e-03 0.000000e+00  -8.250477e-02 1.606081e-03 0.000000e+00  -8.315715e-02 1.138685e-03 0.000000e+00  -8.351503e-02 6.484625e-04 0.000000e+00  -8.356874e-02 1.387953e-04 0.000000e+00  -8.331076e-02 -3.865803e-04 0.000000e+00  -8.273582e-02 -9.235951e-04 0.000000e+00  -8.184108e-02 -1.467874e-03 0.000000e+00  -8.062619e-02 -2.014771e-03 0.000000e+00  -7.909341e-02 -2.559401e-03 0.000000e+00  -7.724763e-02 -3.096695e-03 0.000000e+00  -7.509648e-02 -3.621443e-03 0.000000e+00  -7.265027e-02 -4.128357e-03 0.000000e+00  -6.992206e-02 -4.612136e-03 0.000000e+00  -6.692756e-02 -5.067535e-03 0.000000e+00  -6.368508e-02 -5.489446e-03 0.000000e+00  -6.021545e-02 -5.872975e-03 0.000000e+00  -5.654183e-02 -6.213532e-03 0.000000e+00  -5.268959e-02 -6.506916e-03 0.000000e+00  -4.868605e-02 -6.749401e-03 0.000000e+00  -4.456026e-02 -6.937823e-03 0.000000e+00  -4.034271e-02 -7.069657e-03 0.000000e+00  -3.606499e-02 -7.143090e-03 0.000000e+00  -3.175945e-02 -7.157085e-03 0.000000e+00  -2.745882e-02 -7.111424e-03 0.000000e+00  -2.319583e-02 -7.006746e-03 0.000000e+00  -1.900273e-02 -6.844558e-03 0.000000e+00  -1.491094e-02 -6.627233e-03 0.000000e+00  -1.095058e-02 -6.357983e-03 0.000000e+00  -7.150056e-03 -6.040811e-03 0.000000e+00  -3.535685e-03 -5.680445e-03 0.000000e+00  -1.312982e-04 -5.282249e-03 0.000000e+00  3.042073e-03 -4.852116e-03 0.000000e+00  5.966489e-03 -4.396347e-03 0.000000e+00  8.627328e-03 -3.921517e-03 0.000000e+00  1.101345e-02 -3.434332e-03 0.000000e+00  1.311732e-02 -2.941484e-03 0.000000e+00  1.493498e-02 -2.449509e-03 0.000000e+00  1.646608e-02 -1.964644e-03 0.000000e+00  1.771368e-02 -1.492704e-03 0.000000e+00  1.868413e-02 -1.038960e-03 