<?xml version="1.0"?>
<VTKFile type="UnstructuredGrid"  version="0.1"  >
<UnstructuredGrid>
<Piece  NumberOfPoints="16641" NumberOfCells="32768">
<Points>
<DataArray  type="Float32"  NumberOfComponents="3"  format="ascii">0 0 0  0.0078125 0 0  0.015625 0 0  0.0234375 0 0  0.03125 0 0  0.0390625 0 0  0.046875 0 0  0.0546875 0 0  0.0625 0 0  0.0703125 0 0  0.078125 0 0  0.0859375 0 0  0.09375 0 0  0.101562 0 0  0.109375 0 0  0.117188 0 0  0.125 0 0  0.132812 0 0  0.140625 0 0  0.148438 0 0  0.15625 0 0  0.164062 0 0  0.171875 0 0  0.179688 0 0  0.1875 0 0  0.195312 0 0  0.203125 0 0  0.210938 0 0  0.21875 0 0  0.226562 0 0  0.234375 0 0  0.242188 0 0  0.25 0 0  0.257812 0 0  0.265625 0 0  0.273438 0 0  0.28125 0 0  0.289062 0 0  0.296875 0 0  0.304688 0 0  0.3125 0 0  0.320312 0 0  0.328125 0 0  0.335938 0 0  0.34375 0 0  0.351562 0 0  0.359375 0 0  0.367188 0 0  0.375 0 0  0.382812 0 0  0.390625 0 0  0.398438 0 0  0.40625 0 0  0.414062 0 0  0.421875 0 0  0.429688 0 0  0.4375 0 0  0.445312 0 0  0.453125 0 0  0.460938 0 0  0.46875 0 0  0.476562 0 0  0.484375 0 0  0.492188 0 0  0.5 0 0  0.507812 0 0  0.515625 0 0  0.523438 0 0  0.53125 0 0  0.539062 0 0  0.546875 0 0  0.554688 0 0  0.5625 0 0  0.570312 0 0  0.578125 0 0  0.585938 0 0  0.59375 0 0  0.601562 0 0  0.609375 0 0  0.617188 0 0  0.625 0 0  0.632812 0 0  0.640625 0 0  0.648438 0 0  0.65625 0 0  0.664062 0 0  0.671875 0 0  0.679688 0 0  0.6875 0 0  0.695312 0 0  0.703125 0 0  0.710938 0 0  0.71875 0 0  0.726562 0 0  0.734375 0 0  0.742188 0 0  0.75 0 0  0.757812 0 0  0.765625 0 0  0.773438 0 0  0.78125 0 0  0.789062 0 0  0.796875 0 0  0.804688 0 0  0.8125 0 0  0.820312 0 0  0.828125 0 0  0.835938 0 0  0.84375 0 0  0.851562 0 0  0.859375 0 0  0.867188 0 0  0.875 0 0  0.882812 0 0  0.890625 0 0  0.898438 0 0  0.90625 0 0  0.914062 0 0  0.921875 0 0  0.929688 0 0  0.9375 0 0  0.945312 0 0  0.953125 0 0  0.960938 0 0  0.96875 0 0  0.976562 0 0  0.984375 0 0  0.992188 0 0  1 0 0  0 0.0078125 0  0.0078125 0.0078125 0  0.015625 0.0078125 0  0.0234375 0.0078125 0  0.03125 0.0078125 0  0.0390625 0.0078125 0  0.046875 0.0078125 0  0.0546875 0.0078125 0  0.0625 0.0078125 0  0.0703125 0.0078125 0  0.078125 0.0078125 0  0.0859375 0.0078125 0  0.09375 0.0078125 0  0.101562 0.0078125 0  0.109375 0.0078125 0  0.117188 0.0078125 0  0.125 0.0078125 0  0.132812 0.0078125 0  0.140625 0.0078125 0  0.148438 0.0078125 0  0.15625 0.0078125 0  0.164062 0.0078125 0  0.171875 0.0078125 0  0.179688 0.0078125 0  0.1875 0.0078125 0  0.195312 0.0078125 0  0.203125 0.0078125 0  0.210938 0.0078125 0  0.21875 0.0078125 0  0.226562 0.0078125 0  0.234375 0.0078125 0  0.242188 0.0078125 0  0.25 0.0078125 0  0.257812 0.0078125 0  0.265625 0.0078125 0  0.273438 0.0078125 0  0.28125 0.0078125 0  0.289062 0.0078125 0  0.296875 0.0078125 0  0.304688 0.0078125 0  0.3125 0.0078125 0  0.320312 0.0078125 0  0.328125 0.0078125 0  0.335938 0.0078125 0  0.34375 0.0078125 0  0.351562 0.0078125 0  0.359375 0.0078125 0  0.367188 0.0078125 0  0.375 0.0078125 0  0.382812 0.0078125 0  0.390625 0.0078125 0  0.398438 0.0078125 0  0.40625 0.0078125 0  0.414062 0.0078125 0  0.421875 0.0078125 0  0.429688 0.0078125 0  0.4375 0.0078125 0  0.445312 0.0078125 0  0.453125 0.0078125 0  0.460938 0.0078125 0  0.46875 0.0078125 0  0.476562 0.0078125 0  0.484375 0.0078125 0  0.492188 0.0078125 0  0.5 0.0078125 0  0.507812 0.0078125 0  0.515625 0.0078125 0  0.523438 0.0078125 0  0.53125 0.0078125 0  0.539062 0.0078125 0  0.546875 0.0078125 0  0.554688 0.0078125 0  0.5625 0.0078125 0  0.570312 0.0078125 0  0.578125 0.0078125 0  0.585938 0.0078125 0  0.59375 0.0078125 0  0.601562 0.0078125 0  0.609375 0.0078125 0  0.617188 0.0078125 0  0.625 0.0078125 0  0.632812 0.0078125 0  0.640625 0.0078125 0  0.648438 0.0078125 0  0.65625 0.0078125 0  0.664062 0.0078125 0  0.671875 0.0078125 0  0.679688 0.0078125 0  0.6875 0.0078125 0  0.695312 0.0078125 0  0.703125 0.0078125 0  0.710938 0.0078125 0  0.71875 0.0078125 0  0.726562 0.0078125 0  0.734375 0.0078125 0  0.742188 0.0078125 0  0.75 0.0078125 0  0.757812 0.0078125 0  0.765625 0.0078125 0  0.773438 0.0078125 0  0.78125 0.0078125 0  0.789062 0.0078125 0  0.796875 0.0078125 0  0.804688 0.0078125 0  0.8125 0.0078125 0  0.820312 0.0078125 0  0.828125 0.0078125 0  0.835938 0.0078125 0  0.84375 0.0078125 0  0.851562 0.0078125 0  0.859375 0.0078125 0  0.867188 0.0078125 0  0.875 0.0078125 0  0.882812 0.0078125 0  0.890625 0.0078125 0  0.898438 0.0078125 0  0.90625 0.0078125 0  0.914062 0.0078125 0  0.921875 0.0078125 0  0.929688 0.0078125 0  0.9375 0.0078125 0  0.945312 0.0078125 0  0.953125 0.0078125 0  0.960938 0.0078125 0  0.96875 0.0078125 0  0.976562 0.0078125 0  0.984375 0.0078125 0  0.992188 0.0078125 0  1 0.0078125 0  0 0.015625 0  0.0078125 0.015625 0  0.015625 0.015625 0  0.0234375 0.015625 0  0.03125 0.015625 0  0.0390625 0.015625 0  0.046875 0.015625 0  0.0546875 0.015625 0  0.0625 0.015625 0  0.0703125 0.015625 0  0.078125 0.015625 0  0.0859375 0.015625 0  0.09375 0.015625 0  0.101562 0.015625 0  0.109375 0.015625 0  0.117188 0.015625 0  0.125 0.015625 0  0.132812 0.015625 0  0.140625 0.015625 0  0.148438 0.015625 0  0.15625 0.015625 0  0.164062 0.015625 0  0.171875 0.015625 0  0.179688 0.015625 0  0.1875 0.015625 0  0.195312 0.015625 0  0.203125 0.015625 0  0.210938 0.015625 0  0.21875 0.015625 0  0.226562 0.015625 0  0.234375 0.015625 0  0.242188 0.015625 0  0.25 0.015625 0  0.257812 0.015625 0  0.265625 0.015625 0  0.273438 0.015625 0  0.28125 0.015625 0  0.289062 0.015625 0  0.296875 0.015625 0  0.304688 0.015625 0  0.3125 0.015625 0  0.320312 0.015625 0  0.328125 0.015625 0  0.335938 0.015625 0  0.34375 0.015625 0  0.351562 0.015625 0  0.359375 0.015625 0  0.367188 0.015625 0  0.375 0.015625 0  0.382812 0.015625 0  0.390625 0.015625 0  0.398438 0.015625 0  0.40625 0.015625 0  0.414062 0.015625 0  0.421875 0.015625 0  0.429688 0.015625 0  0.4375 0.015625 0  0.445312 0.015625 0  0.453125 0.015625 0  0.460938 0.015625 0  0.46875 0.015625 0  0.476562 0.015625 0  0.484375 0.015625 0  0.492188 0.015625 0  0.5 0.015625 0  0.507812 0.015625 0  0.515625 0.015625 0  0.523438 0.015625 0  0.53125 0.015625 0  0.539062 0.015625 0  0.546875 0.015625 0  0.554688 0.015625 0  0.5625 0.015625 0  0.570312 0.015625 0  0.578125 0.015625 0  0.585938 0.015625 0  0.59375 0.015625 0  0.601562 0.015625 0  0.609375 0.015625 0  0.617188 0.015625 0  0.625 0.015625 0  0.632812 0.015625 0  0.640625 0.015625 0  0.648438 0.015625 0  0.65625 0.015625 0  0.664062 0.015625 0  0.671875 0.015625 0  0.679688 0.015625 0  0.6875 0.015625 0  0.695312 0.015625 0  0.703125 0.015625 0  0.710938 0.015625 0  0.71875 0.015625 0  0.726562 0.015625 0  0.734375 0.015625 0  0.742188 0.015625 0  0.75 0.015625 0  0.757812 0.015625 0  0.765625 0.015625 0  0.773438 0.015625 0  0.78125 0.015625 0  0.789062 0.015625 0  0.796875 0.015625 0  0.804688 0.015625 0  0.8125 0.015625 0  0.820312 0.015625 0  0.828125 0.015625 0  0.835938 0.015625 0  0.84375 0.015625 0  0.851562 0.015625 0  0.859375 0.015625 0  0.867188 0.015625 0  0.875 0.015625 0  0.882812 0.015625 0  0.890625 0.015625 0  0.898438 0.015625 0  0.90625 0.015625 0  0.914062 0.015625 0  0.921875 0.015625 0  0.929688 0.015625 0  0.9375 0.015625 0  0.945312 0.015625 0  0.953125 0.015625 0  0.960938 0.015625 0  0.96875 0.015625 0  0.976562 0.015625 0  0.984375 0.015625 0  0.992188 0.015625 0  1 0.015625 0  0 0.0234375 0  0.0078125 0.0234375 0  0.015625 0.0234375 0  0.0234375 0.0234375 0  0.03125 0.0234375 0  0.0390625 0.0234375 0  0.046875 0.0234375 0  0.0546875 0.0234375 0  0.0625 0.0234375 0  0.0703125 0.0234375 0  0.078125 0.0234375 0  0.0859375 0.0234375 0  0.09375 0.0234375 0  0.101562 0.0234375 0  0.109375 0.0234375 0  0.117188 0.0234375 0  0.125 0.0234375 0  0.132812 0.0234375 0  0.140625 0.0234375 0  0.148438 0.0234375 0  0.15625 0.0234375 0  0.164062 0.0234375 0  0.171875 0.0234375 0  0.179688 0.0234375 0  0.1875 0.0234375 0  0.195312 0.0234375 0  0.203125 0.0234375 0  0.210938 0.0234375 0  0.21875 0.0234375 0  0.226562 0.0234375 0  0.234375 0.0234375 0  0.242188 0.0234375 0  0.25 0.0234375 0  0.257812 0.0234375 0  0.265625 0.0234375 0  0.273438 0.0234375 0  0.28125 0.0234375 0  0.289062 0.0234375 0  0.296875 0.0234375 0  0.304688 0.0234375 0  0.3125 0.0234375 0  0.320312 0.0234375 0  0.328125 0.0234375 0  0.335938 0.0234375 0  0.34375 0.0234375 0  0.351562 0.0234375 0  0.359375 0.0234375 0  0.367188 0.0234375 0  0.375 0.0234375 0  0.382812 0.0234375 0  0.390625 0.0234375 0  0.398438 0.0234375 0  0.40625 0.0234375 0  0.414062 0.0234375 0  0.421875 0.0234375 0  0.429688 0.0234375 0  0.4375 0.0234375 0  0.445312 0.0234375 0  0.453125 0.0234375 0  0.460938 0.0234375 0  0.46875 0.0234375 0  0.476562 0.0234375 0  0.484375 0.0234375 0  0.492188 0.0234375 0  0.5 0.0234375 0  0.507812 0.0234375 0  0.515625 0.0234375 0  0.523438 0.0234375 0  0.53125 0.0234375 0  0.539062 0.0234375 0  0.546875 0.0234375 0  0.554688 0.0234375 0  0.5625 0.0234375 0  0.570312 0.0234375 0  0.578125 0.0234375 0  0.585938 0.0234375 0  0.59375 0.0234375 0  0.601562 0.0234375 0  0.609375 0.0234375 0  0.617188 0.0234375 0  0.625 0.0234375 0  0.632812 0.0234375 0  0.640625 0.0234375 0  0.648438 0.0234375 0  0.65625 0.0234375 0  0.664062 0.0234375 0  0.671875 0.0234375 0  0.679688 0.0234375 0  0.6875 0.0234375 0  0.695312 0.0234375 0  0.703125 0.0234375 0  0.710938 0.0234375 0  0.71875 0.0234375 0  0.726562 0.0234375 0  0.734375 0.0234375 0  0.742188 0.0234375 0  0.75 0.0234375 0  0.757812 0.0234375 0  0.765625 0.0234375 0  0.773438 0.0234375 0  0.78125 0.0234375 0  0.789062 0.0234375 0  0.796875 0.0234375 0  0.804688 0.0234375 0  0.8125 0.0234375 0  0.820312 0.0234375 0  0.828125 0.0234375 0  0.835938 0.0234375 0  0.84375 0.0234375 0  0.851562 0.0234375 0  0.859375 0.0234375 0  0.867188 0.0234375 0  0.875 0.0234375 0  0.882812 0.0234375 0  0.890625 0.0234375 0  0.898438 0.0234375 0  0.90625 0.0234375 0  0.914062 0.0234375 0  0.921875 0.0234375 0  0.929688 0.0234375 0  0.9375 0.0234375 0  0.945312 0.0234
[...]
<PointData  Vectors="u"> 
<DataArray  type="Float32"  Name="u"  NumberOfComponents="3" format="ascii">0.000000e+00 0.000000e+00 0.000000e+00  0.000000e+00 0.000000e+00 0.000000e+00  0.000000e+00 0.000000e+00 0.000000e+00  0.000000e+00 0.000000e+00 0.000000e+00  0.000000e+00 0.000000e+00 0.000000e+00  0.000000e+00 0.000000e+00 0.000000e+00  0.000000e+00 0.000000e+00 0.000000e+00  0.000000e+00 0.000000e+00 0.000000e+00  0.000000e+00 0.000000e+00 0.000000e+00  0.000000e+00 0.000000e+00 0.000000e+00  0.000000e+00 0.000000e+00 0.000000e+00  0.000000e+00 0.000000e+00 0.000000e+00  0.000000e+00 0.000000e+00 0.000000e+00  0.000000e+00 0.000000e+00 0.000000e+00  0.000000e+00 0.000000e+00 0.000000e+00  0.000000e+00 0.000000e+00 0.000000e+00  0.000000e+00 0.000000e+00 0.000000e+00  0.000000e+00 0.000000e+00 0.000000e+00  0.000000e+00 0.000000e+00 0.000000e+00  0.000000e+00 0.000000e+00 0.000000e+00  0.000000e+00 0.000000e+00 0.000000e+00  0.000000e+00 0.000000e+00 0.000000e+00  0.000000e+00 0.000000e+00 0.000000e+00  0.000000e+00 0.000000e+00 0.000000e+00  0.000000e+00 0.000000e+00 0.000000e+00  0.000000e+00 0.000000e+00 0.000000e+00  0.000000e+00 0.000000e+00 0.000000e+00  0.000000e+00 0.000000e+00 0.000000e+00  0.000000e+00 0.000000e+00 0.000000e+00  0.000000e+00 0.000000e+00 0.000000e+00  0.000000e+00 0.000000e+00 0.000000e+00  0.000000e+00 0.000000e+00 0.000000e+00  0.000000e+00 0.000000e+00 0.000000e+00  0.000000e+00 0.000000e+00 0.000000e+00  0.000000e+00 0.000000e+00 0.000000e+00  0.000000e+00 0.000000e+00 0.000000e+00  0.000000e+00 0.000000e+00 0.000000e+00  0.000000e+00 0.000000e+00 0.000000e+00  0.000000e+00 0.000000e+00 0.000000e+00  0.000000e+00 0.000000e+00 0.000000e+00  0.000000e+00 0.000000e+00 0.000000e+00  0.000000e+00 0.000000e+00 0.000000e+00  0.000000e+00 0.000000e+00 0.000000e+00  0.000000e+00 0.000000e+00 0.000000e+00  0.000000e+00 0.000000e+00 0.000000e+00  0.000000e+00 0.000000e+00 0.000000e+00  0.000000e+00 0.000000e+00 0.000000e+00  0.000000e+00 0.000000e+00 0.000000e+00  0.000000e+00 0.000000e+00 0.000000e+00  0.000000e+00 0.000000e+00 0.000000e+00  0.000000e+00 0.000000e+00 0.000000e+00  0.000000e+00 0.000000e+00 0.000000e+00  0.000000e+00 0.000000e+00 0.000000e+00  0.000000e+00 0.000000e+00 0.000000e+00  0.000000e+00 0.000000e+00 0.000000e+00  0.000000e+00 0.000000e+00 0.000000e+00  0.000000e+00 0.000000e+00 0.000000e+00  0.000000e+00 0.000000e+00 0.000000e+00  0.000000e+00 0.000000e+00 0.000000e+00  0.000000e+00 0.000000e+00 0.000000e+00  0.000000e+00 0.000000e+00 0.000000e+00  0.000000e+00 0.000000e+00 0.000000e+00  0.000000e+00 0.000000e+00 0.000000e+00  0.000000e+00 0.000000e+00 0.000000e+00  0.000000e+00 0.000000e+00 0.000000e+00  0.000000e+00 0.000000e+00 0.000000e+00  0.000000e+00 0.000000e+00 0.000000e+00  0.000000e+00 0.000000e+00 0.000000e+00  0.000000e+00 0.000000e+00 0.000000e+00  0.000000e+00 0.000000e+00 0.000000e+00  0.000000e+00 0.000000e+00 0.000000e+00  0.000000e+00 0.000000e+00 0.000000e+00  0.000000e+00 0.000000e+00 0.000000e+00  0.000000e+00 0.000000e+00 0.000000e+00  0.000000e+00 0.000000e+00 0.000000e+00  0.000000e+00 0.000000e+00 0.000000e+00  0.000000e+00 0.000000e+00 0.000000e+00  0.000000e+00 0.000000e+00 0.000000e+00  0.000000e+00 0.000000e+00 0.000000e+00  0.000000e+00 0.000000e+00 0.000000e+00  0.000000e+00 0.000000e+00 0.000000e+00  0.000000e+00 0.000000e+00 0.000000e+00  0.000000e+00 0.000000e+00 0.000000e+00  0.000000e+00 0.000000e+00 0.000000e+00  0.000000e+00 0.000000e+00 0.000000e+00  0.000000e+00 0.000000e+00 0.000000e+00  0.000000e+00 0.000000e+00 0.000000e+00  0.000000e+00 0.000000e+00 0.000000e+00  0.000000e+00 0.000000e+00 0.000000e+00  0.000000e+00 0.000000e+00 0.000000e+00  0.000000e+00 0.000000e+00 0.000000e+00  0.000000e+00 0.000000e+00 0.000000e+00  0.000000e+00 0.000000e+00 0.000000e+00  0.000000e+00 0.000000e+00 0.000000e+00  0.000000e+00 0.000000e+00 0.000000e+00  0.000000e+00 0.000000e+00 0.000000e+00  0.000000e+00 0.000000e+00 0.000000e+00  0.000000e+00 0.000000e+00 0.000000e+00  0.000000e+00 0.000000e+00 0.000000e+00  0.000000e+00 0.000000e+00 0.000000e+00  0.000000e+00 0.000000e+00 0.000000e+00  0.000000e+00 0.000000e+00 0.000000e+00  0.000000e+00 0.000000e+00 0.000000e+00  0.000000e+00 0.000000e+00 0.000000e+00  0.000000e+00 0.000000e+00 0.000000e+00  0.000000e+00 0.000000e+00 0.000000e+00  0.000000e+00 0.000000e+00 0.000000e+00  0.000000e+00 0.000000e+00 0.000000e+00  0.000000e+00 0.000000e+00 0.000000e+00  0.000000e+00 0.000000e+00 0.000000e+00  0.000000e+00 0.000000e+00 0.000000e+00  0.000000e+00 0.000000e+00 0.000000e+00  0.000000e+00 0.000000e+00 0.000000e+00  0.000000e+00 0.000000e+00 0.000000e+00  0.000000e+00 0.000000e+00 0.000000e+00  0.000000e+00 0.000000e+00 0.000000e+00  0.000000e+00 0.000000e+00 0.000000e+00  0.000000e+00 0.000000e+00 0.000000e+00  0.000000e+00 0.000000e+00 0.000000e+00  0.000000e+00 0.000000e+00 0.000000e+00  0.000000e+00 0.000000e+00 0.000000e+00  0.000000e+00 0.000000e+00 0.000000e+00  0.000000e+00 0.000000e+00 0.000000e+00  0.000000e+00 0.000000e+00 0.000000e+00  0.000000e+00 0.000000e+00 0.000000e+00  0.000000e+00 0.000000e+00 0.000000e+00  0.000000e+00 0.000000e+00 0.000000e+00  0.000000e+00 0.000000e+00 0.000000e+00  0.000000e+00 0.000000e+00 0.000000e+00  0.000000e+00 0.000000e+00 0.000000e+00  5.197650e-06 -5.197658e-06 0.000000e+00  1.858799e-05 -9.093924e-06 0.000000e+00  3.597071e-05 -1.004118e-05 0.000000e+00  5.277578e-05 -8.851931e-06 0.000000e+00  6.579513e-05 -6.215938e-06 0.000000e+00  7.278050e-05 -2.632191e-06 0.000000e+00  7.224712e-05 1.554219e-06 0.000000e+00  6.324791e-05 6.106039e-06 0.000000e+00  4.521793e-05 1.085643e-05 0.000000e+00  1.786818e-05 1.568600e-05 0.000000e+00  -1.888883e-05 2.050788e-05 0.000000e+00  -6.499139e-05 2.525794e-05 0.000000e+00  -1.202623e-04 2.988801e-05 0.000000e+00  -1.844552e-04 3.436293e-05 0.000000e+00  -2.572416e-04 3.865486e-05 0.000000e+00  -3.382399e-04 4.274263e-05 0.000000e+00  -4.270509e-04 4.661125e-05 0.000000e+00  -5.232512e-04 5.024953e-05 0.000000e+00  -6.263726e-04 5.364843e-05 0.000000e+00  -7.359278e-04 5.680150e-05 0.000000e+00  -8.514459e-04 5.970510e-05 0.000000e+00  -9.724518e-04 6.235713e-05 0.000000e+00  -1.098436e-03 6.475611e-05 0.000000e+00  -1.228884e-03 6.690181e-05 0.000000e+00  -1.363316e-03 6.879553e-05 0.000000e+00  -1.501255e-03 7.043928e-05 0.000000e+00  -1.642195e-03 7.183527e-05 0.000000e+00  -1.785630e-03 7.298647e-05 0.000000e+00  -1.931101e-03 7.389666e-05 0.000000e+00  -2.078154e-03 7.457000e-05 0.000000e+00  -2.226308e-03 7.501083e-05 0.000000e+00  -2.375089e-03 7.522395e-05 0.000000e+00  -2.524071e-03 7.521458e-05 0.000000e+00  -2.672839e-03 7.498811e-05 0.000000e+00  -2.820949e-03 7.455019e-05 0.000000e+00  -2.967971e-03 7.390681e-05 0.000000e+00  -3.113523e-03 7.306402e-05 0.000000e+00  -3.257235e-03 7.202793e-05 0.000000e+00  -3.398712e-03 7.080508e-05 0.000000e+00  -3.537572e-03 6.940220e-05 0.000000e+00  -3.673484e-03 6.782584e-05 0.000000e+00  -3.806128e-03 6.608254e-05 0.000000e+00  -3.935163e-03 6.417939e-05 0.000000e+00  -4.060263e-03 6.212362e-05 0.000000e+00  -4.181148e-03 5.992203e-05 0.000000e+00  -4.297551e-03 5.758139e-05 0.000000e+00  -4.409189e-03 5.510913e-05 0.000000e+00  -4.515794e-03 5.251279e-05 0.000000e+00  -4.617141e-03 4.979927e-05 0.000000e+00  -4.713018e-03 4.697545e-05 0.000000e+00  -4.803199e-03 4.404896e-05 0.000000e+00  -4.887478e-03 4.102749e-05 0.000000e+00  -4.965686e-03 3.791797e-05 0.000000e+00  -5.037662e-03 3.472733e-05 0.000000e+00  -5.103245e-03 3.146327e-05 0.000000e+00  -5.162288e-03 2.813357e-05 0.000000e+00  -5.214677e-03 2.474515e-05 0.000000e+00  -5.260307e-03 2.130491e-05 0.000000e+00  -5.299077e-03 1.782062e-05 0.000000e+00  -5.330904e-03 1.430009e-05 0.000000e+00  -5.355726e-03 1.075020e-05 0.000000e+00  -5.373495e-03 7.177839e-06 0.000000e+00  -5.384170e-03 3.590799e-06 0.000000e+00  -5.387731e-03 -3.112870e-09 0.000000e+00  -5.384171e-03 -3.597017e-06 0.000000e+00  -5.373496e-03 -7.184037e-06 0.000000e+00  -5.355727e-03 -1.075637e-05 0.000000e+00  -5.330905e-03 -1.430623e-05 0.000000e+00  -5.299080e-03 -1.782671e-05 0.000000e+00  -5.260310e-03 -2.131094e-05 0.000000e+00  -5.214680e-03 -2.475111e-05 0.000000e+00  -5.162292e-03 -2.813945e-05 0.000000e+00  -5.103249e-03 -3.146905e-05 0.000000e+00  -5.037667e-03 -3.473301e-05 0.000000e+00  -4.965691e-03 -3.792355e-05 0.000000e+00  -4.887484e-03 -4.103294e-05 0.000000e+00  -4.803205e-03 -4.405426e-05 0.000000e+00  -4.713024e-03 -4.698060e-05 0.000000e+00  -4.617148e-03 -4.980426e-05 0.000000e+00  -4.515801e-03 -5.251761e-05 0.000000e+00  -4.409196e-03 -5.511376e-05 0.000000e+00  -4.297559e-03 -5.758581e-05 0.000000e+00  -4.181156e-03 -5.992623e-05 0.000000e+00  -4.060271e-03 -6.212760e-05 0.000000e+00  -3.935172e-03 -6.418312e-05 0.000000e+00  -3.806137e-03 -6.608601e-05 0.000000e+00  -3.673493e-03 -6.782903e-05 0.000000e+00  -3.537581e-03 -6.940511e-05 0.000000e+00  -3.398721e-03 -7.080767e-05 0.000000e+00  -3.257244e-03 -7.203019e-05 0.000000e+00  -3.113533e-03 -7.306593e-05 0.000000e+00  -2.967981e-03 -7.390836e-05 0.000000e+00  -2.820959e-03 -7.455135e-05 0.000000e+00  -2.672848e-03 -7.498885e-05 0.000000e+00  -2.524080e-03 -7.521489e-05 0.000000e+00  -2.375098e-03 -7.522379e-05 0.000000e+00  -2.226317e-03 -7.501016e-05 0.000000e+00  -2.078163e-03 -7.456881e-05 0.000000e+00  -1.931109e-03 -7.389491e-05 0.000000e+00  -1.785638e-03 -7.298411e-05 0.000000e+00  -1.642202e-03 -7.183228e-05 0.000000e+00  -1.501262e-03 -7.043561e-05 0.000000e+00  -1.363322e-03 -6.879114e-05 0.000000e+00  -1.228890e-03 -6.689663e-05 0.000000e+00  -1.098441e-03 -6.475010e-05 0.000000e+00  -9.724569e-04 -6.235024e-05 0.000000e+00  -8.514505e-04 -5.969726e-05 0.000000e+00  -7.359320e-04 -5.679264e-05 0.000000e+00  -6.263763e-04 -5.363849e-05 0.000000e+00  -5.232544e-04 -5.023842e-05 0.000000e+00  -4.270535e-04 -4.659888e-05 0.000000e+00  -3.382420e-04 -4.272892e-05 0.000000e+00  -2.572432e-04 -3.863972e-05 0.000000e+00  -1.844561e-04 -3.434627e-05 0.000000e+00  -1.202624e-04 -2.986973e-05 0.000000e+00  -6.499072e-05 -2.523797e-05 0.000000e+00  -1.888981e-05 -2.048651e-05 0.000000e+00  1.787110e-05 -1.566266e-05 0.000000e+00  4.522382e-05 -1.083130e-05 0.000000e+00  6.325419e-05 -6.080221e-06 0.000000e+00  7.225532e-05 -1.528708e-06 0.000000e+00  7.279133e-05 2.655936e-06 0.000000e+00  6.580788e-05 6.233661e-06 0.000000e+00  5.279059e-05 8.856420e-06 0.000000e+00  3.597018e-05 1.001537e-05 0.000000e+00  1.863980e-05 9.010952e-06 0.000000e+00  5.096205e-06 5.096597e-06 0.000000e+00  0.000000e+00 0.000000e+00 0.000000e+00  0.000000e+00 0.000000e+00 0.000000e+00  9.099428e-06 -1.859133e-05 0.000000e+00  2.943011e-05 -2.941492e-05 0.000000e+00  5.338299e-05 -3.149500e-05 0.000000e+00  7.477654e-05 -2.661531e-05 0.000000e+00  8.878320e-05 -1.672610e-05 0.000000e+00  9.176031e-05 -3.391044e-06 0.000000e+00  8.112609e-05 1.223445e-05 0.000000e+00  5.512285e-05 2.930885e-05 0.000000e+00  1.263158e-05 4.721717e-05 0.000000e+00  -4.697964e-05 6.550601e-05 0.000000e+00  -1.239709e-04 8.383752e-05 0.000000e+00  -2.183174e-04 1.019574e-04 0.000000e+00  -3.297667e-04 1.196715e-04 0.000000e+00  -4.579276e-04 1.368356e-04 0.000000e+00  -6.022399e-04 1.533344e-04 0.000000e+00  -7.620329e-04 1.690789e-04 0.000000e+00  -9.365947e-04 1.840047e-04 0.000000e+00  -1.125159e-03 1.980631e-04 0.000000e+00  -1.326866e-03 2.112141e-04 0.000000e+00  -1.540813e-03 2.234285e-04 0.000000e+00  -1.766122e-03 2.346887e-04 0.000000e+00  -2.001906e-03 2.449831e-04 0.000000e+00  -2.247204e-03 2.543033e-04 0.000000e+00  -2.501043e-03 2.626461e-04 0.000000e+00  -2.762511e-03 2.700144e-04 0.000000e+00  -3.030705e-03 2.764142e-04 0.000000e+00  -3.304656e-03 2.818525e-04 0.000000e+00  -3.583398e-03 2.863395e-04 0.000000e+00  -3.866050e-03 2.898888e-04 0.000000e+00  -4.151743e-03 2.925154e-04 0.000000e+00  -4.439551e-03 2.942355e-04 0.000000e+00  -4.728560e-03 2.950668e-04 0.000000e+00  -5.017950e-03 2.950292e-04 0.000000e+00  -5.306920e-03 2.941429e-04 0.000000e+00  -5.594614e-03 2.924296e-04 0.000000e+00  -5.880197e-03 2.899122e-04 0.000000e+00  -6.162931e-03 2.866138e-04 0.000000e+00  -6.442099e-03 2.825582e-04 0.000000e+00  -6.716936e-03 2.777704e-04 0.000000e+00  -6.986701e-03 2.722767e-04 0.000000e+00  -7.250751e-03 2.661024e-04 0.000000e+00  -7.508463e-03 2.592729e-04 0.000000e+00  -7.759175e-03 2.518157e-04 0.000000e+00  -8.002253e-03 2.437592e-04 0.000000e+00  -8.237154e-03 2.351298e-04 0.000000e+00  -8.463357e-03 2.259541e-04 0.000000e+00  -8.680310e-03 2.162610e-04 0.000000e+00  -8.887492e-03 2.060799e-04 0.000000e+00  -9.084465e-03 1.954381e-04 0.000000e+00  -9.270814e-03 1.843625e-04 0.000000e+00  -9.446100e-03 1.728829e-04 0.000000e+00  -9.609922e-03 1.610295e-04 0.000000e+00  -9.761946e-03 1.488297e-04 0.000000e+00  -9.901863e-03 1.363105e-04 0.000000e+00  -1.002936e-02 1.235024e-04 0.000000e+00  -1.014414e-02 1.104357e-04 0.000000e+00  -1.024599e-02 9.713789e-05 0.000000e+00  -1.033470e-02 8.363598e-05 0.000000e+00  -1.041008e-02 6.996059e-05 0.000000e+00  -1.047195e-02 5.614241e-05 0.000000e+00  -1.052021e-02 4.220860e-05 0.000000e+00  -1.055476e-02 2.818628e-05 0.000000e+00  -1.057552e-02 1.410612e-05 0.000000e+00  -1.058244e-02 -1.136101e-09 0.000000e+00  -1.057552e-02 -1.410839e-05 0.000000e+00  -1.055476e-02 -2.818854e-05 0.000000e+00  -1.052022e-02 -4.221085e-05 0.000000e+00  -1.047196e-02 -5.614464e-05 0.000000e+00  -1.041008e-02 -6.996280e-05 0.000000e+00  -1.033470e-02 -8.363816e-05 0.000000e+00  -1.024599e-02 -9.714004e-05 0.000000e+00  -1.014414e-02 -1.104378e-04 0.000000e+00  -1.002936e-02 -1.235044e-04 0.000000e+00  -9.901871e-03 -1.363126e-04 0.000000e+00  -9.761954e-03 -1.488317e-04 0.000000e+00  -9.609930e-03 -1.610315e-04 0.000000e+00  -9.446110e-03 -1.728847e-04 0.000000e+00  -9.270824e-03 -1.843643e-04 0.000000e+00  -9.084476e-03 -1.954398e-04 0.000000e+00  -8.887504e-03 -2.060816e-04 0.000000e+00  -8.680322e-03 -2.162625e-04 0.000000e+00  -8.463369e-03 -2.259556e-04 0.000000e+00  -8.237167e-03 -2.351313e-04 0.000000e+00  -8.002266e-03 -2.437606e-04 0.000000e+00  -7.759189e-03 -2.518170e-04 0.000000e+00  -7.508477e-03 -2.592740e-04 0.000000e+00  -7.250765e-03 -2.661035e-04 0.000000e+00  -6.986715e-03 -2.722777e-04 0.000000e+00  -6.716950e-03 -2.777713e-04 0.000000e+00  -6.442114e-03 -2.825590e-04 0.000000e+00  -6.162946e-03 -2.866145e-04 0.000000e+00  -5.880212e-03 -2.899128e-04 0.000000e+00  -5.594628e-03 -2.924301e-04 0.000000e+00  -5.306934e-03 -2.941432e-04 0.000000e+00  -5.017964e-03 -2.950294e-04 0.000000e+00  -4.728573e-03 -2.950668e-04 0.000000e+00  -4.439563e-03 -2.942353e-04 0.000000e+00  -4.151755e-03 -2.925151e-04 0.000000e+00  -3.866061e-03 -2.898882e-04 0.000000e+00  -3.583408e-03 -2.863386e-04 0.000000e+00  -3.304665e-03 -2.818514e-04 0.000000e+00  -3.030714e-03 -2.764128e-04 0.000000e+00  -2.762519e-03 -2.700127e-04 0.000000e+00  -2.501049e-03 -2.626440e-04 0.000000e+00  -2.247210e-03 -2.543008e-04 0.000000e+00  -2.001911e-03 -2.449802e-04 0.000000e+00  -1.766126e-03 -2.346853e-04 0.000000e+00  -1.540816e-03 -2.234247e-04 0.000000e+00  -1.326869e-03 -2.112098e-04 0.000000e+00  -1.125161e-03 -1.980583e-04 0.000000e+00  -9.365955e-04 -1.839995e-04 0.000000e+00  -7.620329e-04 -1.690731e-04 0.000000e+00  -6.022392e-04 -1.533282e-04 0.000000e+00  -4.579260e-04 -1.368290e-04 0.000000e+00  -3.297644e-04 -1.196646e-04 0.000000e+00  -2.183142e-04 -1.019503e-04 0.000000e+00  -1.239725e-04 -8.383171e-05 0.000000e+00  -4.697485e-05 -6.549944e-05 0.000000e+00  1.264044e-05 -4.721033e-05 0.000000e+00  5.512908e-05 -2.930476e-05 0.000000e+00  8.113143e-05 -1.223395e-05 0.000000e+00  9.176633e-05 3.388984e-06 0.000000e+00  8.878619e-05 1.672023e-05 0.000000e+00  7.477884e-05 2.660464e-05 0.000000e+00  5.337627e-05 3.149028e-05 0.000000e+00  2.944234e-05 2.942774e-05 0.000000e+00  9.015205e-06 1.864247e-05 0.000000e+00  0.000000e+00 0.000000e+00 0.000000e+00  0.000000e+00 0.000000e+00 0.000000e+00  1.007261e-05 -3.600593e-05 0.000000e+00  3.160297e-05 -5.340083e-05 0.000000e+00  5.469384e-05 -5.453650e-05 0.000000e+00  7.212568e-05 -4.275076e-05 0.000000e+00  7.824318e-05 -2.131392e-05 0.000000e+00  6.866611e-05 7.035490e-06 0.000000e+00  4.013600e-05 4.015099e-05 0.000000e+00  -9.669815e-06 7.639139e-05 0.000000e+00  -8.230366e-05 1.145113e-04 0.000000e+00  -1.786997e-04 1.535644e-04 0.000000e+00  -2.992993e-04 1.928280e-04 0.000000e+00  -4.441522e-04 2.317471e-04 0.000000e+00  -6.129862e-04 2.698905e-04 0.000000e+00  -8.053284e-04 3.069327e-04 0.000000e+00  -1.020455e-03 3.426100e-04 0.000000e+00  -1.257476e-03 3.767165e-04 0.000000e+00  -1.515434e-03 4.091005e-04 0.000000e+00  -1.793286e-03 4.396450e-04 0.000000e+00  -2.089843e-03 4.682537e-04 0.000000e+00  -2.403850e-03 4.948545e-04 0.000000e+00  -2.734081e-03 5.194012e-04 0.000000e+00  -3.079288e-03 5.418625e-04 0.000000e+00  -3.438113e-03 5.622141e-04 0.000000e+00  -3.809174e-03 5.804438e-04 0.000000e+00  -4.191177e-03 5.965537e-04 0.000000e+00  -4.582830e-03 6.105530e-04 0.000000e+00  -4.982747e-03 6.224538e-04 0.000000e+00  -5.389545e-03 6.322752e-04 0.000000e+00  -5.801956e-03 6.400446e-04 0.000000e+00  -6.218730e-03 6.457926e-04 0.000000e+00  -6.638531e-03 6.495524e-04 0.000000e+00  -7.060041e-03 6.513616e-04 0.000000e+00  -7.482074e-03 6.512619e-04 0.000000e+00  -7.903471e-03 6.492967e-04 0.000000e+00  -8.322991e-03 6.455121e-04 0.000000e+00  -8.739424e-03 6.399575e-04 0.000000e+00  -9.151699e-03 6.326832e-04 0.000000e+00  -9.558775e-03 6.237401e-04 0.000000e+00  -9.959537e-03 6.131831e-04 0.000000e+00  -1.035291e-02 6.010690e-04 0.000000e+00  -1.073796e-02 5.874533e-04 0.000000e+00  -1.111377e-02 5.723915e-04 0.000000e+00  -1.147939e-02 5.559439e-04 0.000000e+00  -1.183389e-02 5.381724e-04 0.000000e+00  -1.217647e-02 5.191353e-04 0.000000e+00  -1.250637e-02 4.988907e-04 0.000000e+00  -1.282280e-02 4.775024e-04 0.000000e+00  -1.312499e-02 4.550354e-04 0.000000e+00  -1.341229e-02 4.315493e-04 0.000000e+00  -1.368411e-02 4.071035e-04 0.000000e+00  -1.393980e-02 3.817641e-04 0.000000e+00  -1.417877e-02 3.555976e-04 0.000000e+00  -1.440054e-02 3.286642e-04 0.000000e+00  -1.460465e-02 3.010240e-04 0.000000e+00  -1.479065e-02 2.727440e-04 0.000000e+00  -1.495810e-02 2.438917e-04 0.000000e+00  -1.510669e-02 2.145275e-04 0.000000e+00  -1.523612e-02 1.847113e-04 0.000000e+00  -1.534609e-02 1.545110e-04 0.000000e+00  -1.543636e-02 1.239944e-04 0.000000e+00  -1.550678e-02 9.322167e-05 0.000000e+00  -1.555718e-02 6.225288e-05 0.000000e+00  -1.558746e-02 3.115599e-05 0.000000e+00  -1.559756e-02 -9.548536e-10 0.000000e+00  -1.558747e-02 -3.115789e-05 0.000000e+00  -1.555718e-02 -6.225478e-05 0.000000e+00  -1.550678e-02 -9.322355e-05 0.000000e+00  -1.543637e-02 -1.239963e-04 0.000000e+00  -1.534609e-02 -1.545128e-04 0.000000e+00  -1.523612e-02 -1.847132e-04 0.000000e+00  -1.510670e-02 -2.145293e-04 0.000000e+00  -1.495811e-02 -2.438935e-04 0.000000e+00  -1.479066e-02 -2.727457e-04 0.000000e+00  -1.460466e-02 -3.010257e-04 0.000000e+00  -1.440055e-02 -3.286659e-04 0.000000e+00  -1.417878e-02 -3.555992e-04 0.000000e+00  -1.393981e-02 -3.817656e-04 0.000000e+00  -1.368412e-02 -4.071050e-04 0.000000e+00  -1.341231e-02 -4.315507e-04 0.000000e+00  -1.312500e-02 -4.550368e-04 0.000000e+00  -1.282282e-02 -4.775037e-04 0.000000e+00  -1.250639e-02 -4.988920e-04 0.000000e+00  -1.217649e-02 -5.191365e-04 0.000000e+00  -1.183390e-02 -5.381736e-04 0.000000e+00  -1.147941e-02 -5.559450e-04 0.000000e+00  -1.111379e-02 -5.723926e-04 0.000000e+00  -1.073798e-02 -5.874543e-04 0.000000e+00  -1.035293e-02 -6.010701e-04 0.000000e+00  -9.959557e-03 -6.131841e-04 0.000000e+00  -9.558795e-03 -6.237411e-04 0.000000e+00  -9.151719e-03 -6.326841e-04 0.000000e+00  -8.739444e-03 -6.399584e-04 0.000000e+00  -8.323010e-03 -6.455129e-04 0.000000e+00  -7.903489e-03 -6.492974e-04 0.000000e+00  -7.482092e-03 -6.512626e-04 0.000000e+00  -7.060058e-03 -6.513622e-04 0.000000e+00  -6.638547e-03 -6.495528e-04 0.000000e+00  -6.218746e-03 -6.457928e-