<?xml version="1.0"?>
<VTKFile type="UnstructuredGrid"  version="0.1"  >
<UnstructuredGrid>
<Piece  NumberOfPoints="16641" NumberOfCells="32768">
<Points>
<DataArray  type="Float32"  NumberOfComponents="3"  format="ascii">0 0 0  0.0078125 0 0  0.015625 0 0  0.0234375 0 0  0.03125 0 0  0.0390625 0 0  0.046875 0 0  0.0546875 0 0  0.0625 0 0  0.0703125 0 0  0.078125 0 0  0.0859375 0 0  0.09375 0 0  0.101562 0 0  0.109375 0 0  0.117188 0 0  0.125 0 0  0.132812 0 0  0.140625 0 0  0.148438 0 0  0.15625 0 0  0.164062 0 0  0.171875 0 0  0.179688 0 0  0.1875 0 0  0.195312 0 0  0.203125 0 0  0.210938 0 0  0.21875 0 0  0.226562 0 0  0.234375 0 0  0.242188 0 0  0.25 0 0  0.257812 0 0  0.265625 0 0  0.273438 0 0  0.28125 0 0  0.289062 0 0  0.296875 0 0  0.304688 0 0  0.3125 0 0  0.320312 0 0  0.328125 0 0  0.335938 0 0  0.34375 0 0  0.351562 0 0  0.359375 0 0  0.367188 0 0  0.375 0 0  0.382812 0 0  0.390625 0 0  0.398438 0 0  0.40625 0 0  0.414062 0 0  0.421875 0 0  0.429688 0 0  0.4375 0 0  0.445312 0 0  0.453125 0 0  0.460938 0 0  0.46875 0 0  0.476562 0 0  0.484375 0 0  0.492188 0 0  0.5 0 0  0.507812 0 0  0.515625 0 0  0.523438 0 0  0.53125 0 0  0.539062 0 0  0.546875 0 0  0.554688 0 0  0.5625 0 0  0.570312 0 0  0.578125 0 0  0.585938 0 0  0.59375 0 0  0.601562 0 0  0.609375 0 0  0.617188 0 0  0.625 0 0  0.632812 0 0  0.640625 0 0  0.648438 0 0  0.65625 0 0  0.664062 0 0  0.671875 0 0  0.679688 0 0  0.6875 0 0  0.695312 0 0  0.703125 0 0  0.710938 0 0  0.71875 0 0  0.726562 0 0  0.734375 0 0  0.742188 0 0  0.75 0 0  0.757812 0 0  0.765625 0 0  0.773438 0 0  0.78125 0 0  0.789062 0 0  0.796875 0 0  0.804688 0 0  0.8125 0 0  0.820312 0 0  0.828125 0 0  0.835938 0 0  0.84375 0 0  0.851562 0 0  0.859375 0 0  0.867188 0 0  0.875 0 0  0.882812 0 0  0.890625 0 0  0.898438 0 0  0.90625 0 0  0.914062 0 0  0.921875 0 0  0.929688 0 0  0.9375 0 0  0.945312 0 0  0.953125 0 0  0.960938 0 0  0.96875 0 0  0.976562 0 0  0.984375 0 0  0.992188 0 0  1 0 0  0 0.0078125 0  0.0078125 0.0078125 0  0.015625 0.0078125 0  0.0234375 0.0078125 0  0.03125 0.0078125 0  0.0390625 0.0078125 0  0.046875 0.0078125 0  0.0546875 0.0078125 0  0.0625 0.0078125 0  0.0703125 0.0078125 0  0.078125 0.0078125 0  0.0859375 0.0078125 0  0.09375 0.0078125 0  0.101562 0.0078125 0  0.109375 0.0078125 0  0.117188 0.0078125 0  0.125 0.0078125 0  0.132812 0.0078125 0  0.140625 0.0078125 0  0.148438 0.0078125 0  0.15625 0.0078125 0  0.164062 0.0078125 0  0.171875 0.0078125 0  0.179688 0.0078125 0  0.1875 0.0078125 0  0.195312 0.0078125 0  0.203125 0.0078125 0  0.210938 0.0078125 0  0.21875 0.0078125 0  0.226562 0.0078125 0  0.234375 0.0078125 0  0.242188 0.0078125 0  0.25 0.0078125 0  0.257812 0.0078125 0  0.265625 0.0078125 0  0.273438 0.0078125 0  0.28125 0.0078125 0  0.289062 0.0078125 0  0.296875 0.0078125 0  0.304688 0.0078125 0  0.3125 0.0078125 0  0.320312 0.0078125 0  0.328125 0.0078125 0  0.335938 0.0078125 0  0.34375 0.0078125 0  0.351562 0.0078125 0  0.359375 0.0078125 0  0.367188 0.0078125 0  0.375 0.0078125 0  0.382812 0.0078125 0  0.390625 0.0078125 0  0.398438 0.0078125 0  0.40625 0.0078125 0  0.414062 0.0078125 0  0.421875 0.0078125 0  0.429688 0.0078125 0  0.4375 0.0078125 0  0.445312 0.0078125 0  0.453125 0.0078125 0  0.460938 0.0078125 0  0.46875 0.0078125 0  0.476562 0.0078125 0  0.484375 0.0078125 0  0.492188 0.0078125 0  0.5 0.0078125 0  0.507812 0.0078125 0  0.515625 0.0078125 0  0.523438 0.0078125 0  0.53125 0.0078125 0  0.539062 0.0078125 0  0.546875 0.0078125 0  0.554688 0.0078125 0  0.5625 0.0078125 0  0.570312 0.0078125 0  0.578125 0.0078125 0  0.585938 0.0078125 0  0.59375 0.0078125 0  0.601562 0.0078125 0  0.609375 0.0078125 0  0.617188 0.0078125 0  0.625 0.0078125 0  0.632812 0.0078125 0  0.640625 0.0078125 0  0.648438 0.0078125 0  0.65625 0.0078125 0  0.664062 0.0078125 0  0.671875 0.0078125 0  0.679688 0.0078125 0  0.6875 0.0078125 0  0.695312 0.0078125 0  0.703125 0.0078125 0  0.710938 0.0078125 0  0.71875 0.0078125 0  0.726562 0.0078125 0  0.734375 0.0078125 0  0.742188 0.0078125 0  0.75 0.0078125 0  0.757812 0.0078125 0  0.765625 0.0078125 0  0.773438 0.0078125 0  0.78125 0.0078125 0  0.789062 0.0078125 0  0.796875 0.0078125 0  0.804688 0.0078125 0  0.8125 0.0078125 0  0.820312 0.0078125 0  0.828125 0.0078125 0  0.835938 0.0078125 0  0.84375 0.0078125 0  0.851562 0.0078125 0  0.859375 0.0078125 0  0.867188 0.0078125 0  0.875 0.0078125 0  0.882812 0.0078125 0  0.890625 0.0078125 0  0.898438 0.0078125 0  0.90625 0.0078125 0  0.914062 0.0078125 0  0.921875 0.0078125 0  0.929688 0.0078125 0  0.9375 0.0078125 0  0.945312 0.0078125 0  0.953125 0.0078125 0  0.960938 0.0078125 0  0.96875 0.0078125 0  0.976562 0.0078125 0  0.984375 0.0078125 0  0.992188 0.0078125 0  1 0.0078125 0  0 0.015625 0  0.0078125 0.015625 0  0.015625 0.015625 0  0.0234375 0.015625 0  0.03125 0.015625 0  0.0390625 0.015625 0  0.046875 0.015625 0  0.0546875 0.015625 0  0.0625 0.015625 0  0.0703125 0.015625 0  0.078125 0.015625 0  0.0859375 0.015625 0  0.09375 0.015625 0  0.101562 0.015625 0  0.109375 0.015625 0  0.117188 0.015625 0  0.125 0.015625 0  0.132812 0.015625 0  0.140625 0.015625 0  0.148438 0.015625 0  0.15625 0.015625 0  0.164062 0.015625 0  0.171875 0.015625 0  0.179688 0.015625 0  0.1875 0.015625 0  0.195312 0.015625 0  0.203125 0.015625 0  0.210938 0.015625 0  0.21875 0.015625 0  0.226562 0.015625 0  0.234375 0.015625 0  0.242188 0.015625 0  0.25 0.015625 0  0.257812 0.015625 0  0.265625 0.015625 0  0.273438 0.015625 0  0.28125 0.015625 0  0.289062 0.015625 0  0.296875 0.015625 0  0.304688 0.015625 0  0.3125 0.015625 0  0.320312 0.015625 0  0.328125 0.015625 0  0.335938 0.015625 0  0.34375 0.015625 0  0.351562 0.015625 0  0.359375 0.015625 0  0.367188 0.015625 0  0.375 0.015625 0  0.382812 0.015625 0  0.390625 0.015625 0  0.398438 0.015625 0  0.40625 0.015625 0  0.414062 0.015625 0  0.421875 0.015625 0  0.429688 0.015625 0  0.4375 0.015625 0  0.445312 0.015625 0  0.453125 0.015625 0  0.460938 0.015625 0  0.46875 0.015625 0  0.476562 0.015625 0  0.484375 0.015625 0  0.492188 0.015625 0  0.5 0.015625 0  0.507812 0.015625 0  0.515625 0.015625 0  0.523438 0.015625 0  0.53125 0.015625 0  0.539062 0.015625 0  0.546875 0.015625 0  0.554688 0.015625 0  0.5625 0.015625 0  0.570312 0.015625 0  0.578125 0.015625 0  0.585938 0.015625 0  0.59375 0.015625 0  0.601562 0.015625 0  0.609375 0.015625 0  0.617188 0.015625 0  0.625 0.015625 0  0.632812 0.015625 0  0.640625 0.015625 0  0.648438 0.015625 0  0.65625 0.015625 0  0.664062 0.015625 0  0.671875 0.015625 0  0.679688 0.015625 0  0.6875 0.015625 0  0.695312 0.015625 0  0.703125 0.015625 0  0.710938 0.015625 0  0.71875 0.015625 0  0.726562 0.015625 0  0.734375 0.015625 0  0.742188 0.015625 0  0.75 0.015625 0  0.757812 0.015625 0  0.765625 0.015625 0  0.773438 0.015625 0  0.78125 0.015625 0  0.789062 0.015625 0  0.796875 0.015625 0  0.804688 0.015625 0  0.8125 0.015625 0  0.820312 0.015625 0  0.828125 0.015625 0  0.835938 0.015625 0  0.84375 0.015625 0  0.851562 0.015625 0  0.859375 0.015625 0  0.867188 0.015625 0  0.875 0.015625 0  0.882812 0.015625 0  0.890625 0.015625 0  0.898438 0.015625 0  0.90625 0.015625 0  0.914062 0.015625 0  0.921875 0.015625 0  0.929688 0.015625 0  0.9375 0.015625 0  0.945312 0.015625 0  0.953125 0.015625 0  0.960938 0.015625 0  0.96875 0.015625 0  0.976562 0.015625 0  0.984375 0.015625 0  0.992188 0.015625 0  1 0.015625 0  0 0.0234375 0  0.0078125 0.0234375 0  0.015625 0.0234375 0  0.0234375 0.0234375 0  0.03125 0.0234375 0  0.0390625 0.0234375 0  0.046875 0.0234375 0  0.0546875 0.0234375 0  0.0625 0.0234375 0  0.0703125 0.0234375 0  0.078125 0.0234375 0  0.0859375 0.0234375 0  0.09375 0.0234375 0  0.101562 0.0234375 0  0.109375 0.0234375 0  0.117188 0.0234375 0  0.125 0.0234375 0  0.132812 0.0234375 0  0.140625 0.0234375 0  0.148438 0.0234375 0  0.15625 0.0234375 0  0.164062 0.0234375 0  0.171875 0.0234375 0  0.179688 0.0234375 0  0.1875 0.0234375 0  0.195312 0.0234375 0  0.203125 0.0234375 0  0.210938 0.0234375 0  0.21875 0.0234375 0  0.226562 0.0234375 0  0.234375 0.0234375 0  0.242188 0.0234375 0  0.25 0.0234375 0  0.257812 0.0234375 0  0.265625 0.0234375 0  0.273438 0.0234375 0  0.28125 0.0234375 0  0.289062 0.0234375 0  0.296875 0.0234375 0  0.304688 0.0234375 0  0.3125 0.0234375 0  0.320312 0.0234375 0  0.328125 0.0234375 0  0.335938 0.0234375 0  0.34375 0.0234375 0  0.351562 0.0234375 0  0.359375 0.0234375 0  0.367188 0.0234375 0  0.375 0.0234375 0  0.382812 0.0234375 0  0.390625 0.0234375 0  0.398438 0.0234375 0  0.40625 0.0234375 0  0.414062 0.0234375 0  0.421875 0.0234375 0  0.429688 0.0234375 0  0.4375 0.0234375 0  0.445312 0.0234375 0  0.453125 0.0234375 0  0.460938 0.0234375 0  0.46875 0.0234375 0  0.476562 0.0234375 0  0.484375 0.0234375 0  0.492188 0.0234375 0  0.5 0.0234375 0  0.507812 0.0234375 0  0.515625 0.0234375 0  0.523438 0.0234375 0  0.53125 0.0234375 0  0.539062 0.0234375 0  0.546875 0.0234375 0  0.554688 0.0234375 0  0.5625 0.0234375 0  0.570312 0.0234375 0  0.578125 0.0234375 0  0.585938 0.0234375 0  0.59375 0.0234375 0  0.601562 0.0234375 0  0.609375 0.0234375 0  0.617188 0.0234375 0  0.625 0.0234375 0  0.632812 0.0234375 0  0.640625 0.0234375 0  0.648438 0.0234375 0  0.65625 0.0234375 0  0.664062 0.0234375 0  0.671875 0.0234375 0  0.679688 0.0234375 0  0.6875 0.0234375 0  0.695312 0.0234375 0  0.703125 0.0234375 0  0.710938 0.0234375 0  0.71875 0.0234375 0  0.726562 0.0234375 0  0.734375 0.0234375 0  0.742188 0.0234375 0  0.75 0.0234375 0  0.757812 0.0234375 0  0.765625 0.0234375 0  0.773438 0.0234375 0  0.78125 0.0234375 0  0.789062 0.0234375 0  0.796875 0.0234375 0  0.804688 0.0234375 0  0.8125 0.0234375 0  0.820312 0.0234375 0  0.828125 0.0234375 0  0.835938 0.0234375 0  0.84375 0.0234375 0  0.851562 0.0234375 0  0.859375 0.0234375 0  0.867188 0.0234375 0  0.875 0.0234375 0  0.882812 0.0234375 0  0.890625 0.0234375 0  0.898438 0.0234375 0  0.90625 0.0234375 0  0.914062 0.0234375 0  0.921875 0.0234375 0  0.929688 0.0234375 0  0.9375 0.0234375 0  0.945312 0.0234
[...]
<PointData  Vectors="u"> 
<DataArray  type="Float32"  Name="u"  NumberOfComponents="3" format="ascii">0.000000e+00 0.000000e+00 0.000000e+00  0.000000e+00 0.000000e+00 0.000000e+00  0.000000e+00 0.000000e+00 0.000000e+00  0.000000e+00 0.000000e+00 0.000000e+00  0.000000e+00 0.000000e+00 0.000000e+00  0.000000e+00 0.000000e+00 0.000000e+00  0.000000e+00 0.000000e+00 0.000000e+00  0.000000e+00 0.000000e+00 0.000000e+00  0.000000e+00 0.000000e+00 0.000000e+00  0.000000e+00 0.000000e+00 0.000000e+00  0.000000e+00 0.000000e+00 0.000000e+00  0.000000e+00 0.000000e+00 0.000000e+00  0.000000e+00 0.000000e+00 0.000000e+00  0.000000e+00 0.000000e+00 0.000000e+00  0.000000e+00 0.000000e+00 0.000000e+00  0.000000e+00 0.000000e+00 0.000000e+00  0.000000e+00 0.000000e+00 0.000000e+00  0.000000e+00 0.000000e+00 0.000000e+00  0.000000e+00 0.000000e+00 0.000000e+00  0.000000e+00 0.000000e+00 0.000000e+00  0.000000e+00 0.000000e+00 0.000000e+00  0.000000e+00 0.000000e+00 0.000000e+00  0.000000e+00 0.000000e+00 0.000000e+00  0.000000e+00 0.000000e+00 0.000000e+00  0.000000e+00 0.000000e+00 0.000000e+00  0.000000e+00 0.000000e+00 0.000000e+00  0.000000e+00 0.000000e+00 0.000000e+00  0.000000e+00 0.000000e+00 0.000000e+00  0.000000e+00 0.000000e+00 0.000000e+00  0.000000e+00 0.000000e+00 0.000000e+00  0.000000e+00 0.000000e+00 0.000000e+00  0.000000e+00 0.000000e+00 0.000000e+00  0.000000e+00 0.000000e+00 0.000000e+00  0.000000e+00 0.000000e+00 0.000000e+00  0.000000e+00 0.000000e+00 0.000000e+00  0.000000e+00 0.000000e+00 0.000000e+00  0.000000e+00 0.000000e+00 0.000000e+00  0.000000e+00 0.000000e+00 0.000000e+00  0.000000e+00 0.000000e+00 0.000000e+00  0.000000e+00 0.000000e+00 0.000000e+00  0.000000e+00 0.000000e+00 0.000000e+00  0.000000e+00 0.000000e+00 0.000000e+00  0.000000e+00 0.000000e+00 0.000000e+00  0.000000e+00 0.000000e+00 0.000000e+00  0.000000e+00 0.000000e+00 0.000000e+00  0.000000e+00 0.000000e+00 0.000000e+00  0.000000e+00 0.000000e+00 0.000000e+00  0.000000e+00 0.000000e+00 0.000000e+00  0.000000e+00 0.000000e+00 0.000000e+00  0.000000e+00 0.000000e+00 0.000000e+00  0.000000e+00 0.000000e+00 0.000000e+00  0.000000e+00 0.000000e+00 0.000000e+00  0.000000e+00 0.000000e+00 0.000000e+00  0.000000e+00 0.000000e+00 0.000000e+00  0.000000e+00 0.000000e+00 0.000000e+00  0.000000e+00 0.000000e+00 0.000000e+00  0.000000e+00 0.000000e+00 0.000000e+00  0.000000e+00 0.000000e+00 0.000000e+00  0.000000e+00 0.000000e+00 0.000000e+00  0.000000e+00 0.000000e+00 0.000000e+00  0.000000e+00 0.000000e+00 0.000000e+00  0.000000e+00 0.000000e+00 0.000000e+00  0.000000e+00 0.000000e+00 0.000000e+00  0.000000e+00 0.000000e+00 0.000000e+00  0.000000e+00 0.000000e+00 0.000000e+00  0.000000e+00 0.000000e+00 0.000000e+00  0.000000e+00 0.000000e+00 0.000000e+00  0.000000e+00 0.000000e+00 0.000000e+00  0.000000e+00 0.000000e+00 0.000000e+00  0.000000e+00 0.000000e+00 0.000000e+00  0.000000e+00 0.000000e+00 0.000000e+00  0.000000e+00 0.000000e+00 0.000000e+00  0.000000e+00 0.000000e+00 0.000000e+00  0.000000e+00 0.000000e+00 0.000000e+00  0.000000e+00 0.000000e+00 0.000000e+00  0.000000e+00 0.000000e+00 0.000000e+00  0.000000e+00 0.000000e+00 0.000000e+00  0.000000e+00 0.000000e+00 0.000000e+00  0.000000e+00 0.000000e+00 0.000000e+00  0.000000e+00 0.000000e+00 0.000000e+00  0.000000e+00 0.000000e+00 0.000000e+00  0.000000e+00 0.000000e+00 0.000000e+00  0.000000e+00 0.000000e+00 0.000000e+00  0.000000e+00 0.000000e+00 0.000000e+00  0.000000e+00 0.000000e+00 0.000000e+00  0.000000e+00 0.000000e+00 0.000000e+00  0.000000e+00 0.000000e+00 0.000000e+00  0.000000e+00 0.000000e+00 0.000000e+00  0.000000e+00 0.000000e+00 0.000000e+00  0.000000e+00 0.000000e+00 0.000000e+00  0.000000e+00 0.000000e+00 0.000000e+00  0.000000e+00 0.000000e+00 0.000000e+00  0.000000e+00 0.000000e+00 0.000000e+00  0.000000e+00 0.000000e+00 0.000000e+00  0.000000e+00 0.000000e+00 0.000000e+00  0.000000e+00 0.000000e+00 0.000000e+00  0.000000e+00 0.000000e+00 0.000000e+00  0.000000e+00 0.000000e+00 0.000000e+00  0.000000e+00 0.000000e+00 0.000000e+00  0.000000e+00 0.000000e+00 0.000000e+00  0.000000e+00 0.000000e+00 0.000000e+00  0.000000e+00 0.000000e+00 0.000000e+00  0.000000e+00 0.000000e+00 0.000000e+00  0.000000e+00 0.000000e+00 0.000000e+00  0.000000e+00 0.000000e+00 0.000000e+00  0.000000e+00 0.000000e+00 0.000000e+00  0.000000e+00 0.000000e+00 0.000000e+00  0.000000e+00 0.000000e+00 0.000000e+00  0.000000e+00 0.000000e+00 0.000000e+00  0.000000e+00 0.000000e+00 0.000000e+00  0.000000e+00 0.000000e+00 0.000000e+00  0.000000e+00 0.000000e+00 0.000000e+00  0.000000e+00 0.000000e+00 0.000000e+00  0.000000e+00 0.000000e+00 0.000000e+00  0.000000e+00 0.000000e+00 0.000000e+00  0.000000e+00 0.000000e+00 0.000000e+00  0.000000e+00 0.000000e+00 0.000000e+00  0.000000e+00 0.000000e+00 0.000000e+00  0.000000e+00 0.000000e+00 0.000000e+00  0.000000e+00 0.000000e+00 0.000000e+00  0.000000e+00 0.000000e+00 0.000000e+00  0.000000e+00 0.000000e+00 0.000000e+00  0.000000e+00 0.000000e+00 0.000000e+00  0.000000e+00 0.000000e+00 0.000000e+00  0.000000e+00 0.000000e+00 0.000000e+00  0.000000e+00 0.000000e+00 0.000000e+00  0.000000e+00 0.000000e+00 0.000000e+00  0.000000e+00 0.000000e+00 0.000000e+00  0.000000e+00 0.000000e+00 0.000000e+00  0.000000e+00 0.000000e+00 0.000000e+00  5.214069e-06 -5.214072e-06 0.000000e+00  1.865239e-05 -9.127366e-06 0.000000e+00  3.610536e-05 -1.008307e-05 0.000000e+00  5.298859e-05 -8.895052e-06 0.000000e+00  6.608282e-05 -6.254978e-06 0.000000e+00  7.313136e-05 -2.663409e-06 0.000000e+00  7.264346e-05 1.533391e-06 0.000000e+00  6.366789e-05 6.097316e-06 0.000000e+00  4.563696e-05 1.086091e-05 0.000000e+00  1.825993e-05 1.570432e-05 0.000000e+00  -1.855167e-05 2.054034e-05 0.000000e+00  -6.473653e-05 2.530461e-05 0.000000e+00  -1.201174e-04 2.994876e-05 0.000000e+00  -1.844478e-04 3.443755e-05 0.000000e+00  -2.573986e-04 3.874302e-05 0.000000e+00  -3.385876e-04 4.284398e-05 0.000000e+00  -4.276148e-04 4.672539e-05 0.000000e+00  -5.240563e-04 5.037609e-05 0.000000e+00  -6.274430e-04 5.378703e-05 0.000000e+00  -7.372869e-04 5.695180e-05 0.000000e+00  -8.531165e-04 5.986678e-05 0.000000e+00  -9.744562e-04 6.252993e-05 0.000000e+00  -1.100796e-03 6.493979e-05 0.000000e+00  -1.231621e-03 6.709619e-05 0.000000e+00  -1.366450e-03 6.900045e-05 0.000000e+00  -1.504808e-03 7.065459e-05 0.000000e+00  -1.646186e-03 7.206088e-05 0.000000e+00  -1.790081e-03 7.322225e-05 0.000000e+00  -1.936030e-03 7.414252e-05 0.000000e+00  -2.083582e-03 7.482580e-05 0.000000e+00  -2.232254e-03 7.527640e-05 0.000000e+00  -2.381572e-03 7.549910e-05 0.000000e+00  -2.531109e-03 7.549904e-05 0.000000e+00  -2.680450e-03 7.528152e-05 0.000000e+00  -2.829151e-03 7.485212e-05 0.000000e+00  -2.976779e-03 7.421674e-05 0.000000e+00  -3.122952e-03 7.338129e-05 0.000000e+00  -3.267298e-03 7.235180e-05 0.000000e+00  -3.409421e-03 7.113465e-05 0.000000e+00  -3.548938e-03 6.973648e-05 0.000000e+00  -3.685514e-03 6.816369e-05 0.000000e+00  -3.818828e-03 6.642273e-05 0.000000e+00  -3.948536e-03 6.452056e-05 0.000000e+00  -4.074309e-03 6.246434e-05 0.000000e+00  -4.195864e-03 6.026076e-05 0.000000e+00  -4.312933e-03 5.791657e-05 0.000000e+00  -4.425227e-03 5.543914e-05 0.000000e+00  -4.532476e-03 5.283598e-05 0.000000e+00  -4.634452e-03 5.011401e-05 0.000000e+00  -4.730940e-03 4.728013e-05 0.000000e+00  -4.821710e-03 4.434201e-05 0.000000e+00  -4.906554e-03 4.130740e-05 0.000000e+00  -4.985299e-03 3.818332e-05 0.000000e+00  -5.057783e-03 3.497676e-05 0.000000e+00  -5.123841e-03 3.169555e-05 0.000000e+00  -5.183324e-03 2.834757e-05 0.000000e+00  -5.236116e-03 2.493986e-05 0.000000e+00  -5.282111e-03 2.147944e-05 0.000000e+00  -5.321206e-03 1.797419e-05 0.000000e+00  -5.353314e-03 1.443207e-05 0.000000e+00  -5.378375e-03 1.086008e-05 0.000000e+00  -5.396340e-03 7.265226e-06 0.000000e+00  -5.407167e-03 3.655442e-06 0.000000e+00  -5.410833e-03 3.866366e-08 0.000000e+00  -5.407334e-03 -3.578103e-06 0.000000e+00  -5.396676e-03 -7.187857e-06 0.000000e+00  -5.378879e-03 -1.078267e-05 0.000000e+00  -5.353985e-03 -1.435462e-05 0.000000e+00  -5.322044e-03 -1.789669e-05 0.000000e+00  -5.283118e-03 -2.140188e-05 0.000000e+00  -5.237290e-03 -2.486229e-05 0.000000e+00  -5.184666e-03 -2.827003e-05 0.000000e+00  -5.125349e-03 -3.161811e-05 0.000000e+00  -5.059457e-03 -3.489953e-05 0.000000e+00  -4.987138e-03 -3.810646e-05 0.000000e+00  -4.908557e-03 -4.123112e-05 0.000000e+00  -4.823875e-03 -4.426658e-05 0.000000e+00  -4.733264e-03 -4.720590e-05 0.000000e+00  -4.636933e-03 -5.004140e-05 0.000000e+00  -4.535108e-03 -5.276551e-05 0.000000e+00  -4.428005e-03 -5.537139e-05 0.000000e+00  -4.315851e-03 -5.785223e-05 0.000000e+00  -4.198914e-03 -6.020060e-05 0.000000e+00  -4.077480e-03 -6.240919e-05 0.000000e+00  -3.951818e-03 -6.447132e-05 0.000000e+00  -3.822208e-03 -6.638032e-05 0.000000e+00  -3.688976e-03 -6.812907e-05 0.000000e+00  -3.552464e-03 -6.971058e-05 0.000000e+00  -3.412994e-03 -7.111834e-05 0.000000e+00  -3.270897e-03 -7.234589e-05 0.000000e+00  -3.126555e-03 -7.338645e-05 0.000000e+00  -2.980363e-03 -7.423348e-05 0.000000e+00  -2.832692e-03 -7.488077e-05 0.000000e+00  -2.683925e-03 -7.532217e-05 0.000000e+00  -2.534493e-03 -7.555154e-05 0.000000e+00  -2.384841e-03 -7.556304e-05 0.000000e+00  -2.235385e-03 -7.535110e-05 0.000000e+00  -2.086555e-03 -7.491030e-05 0.000000e+00  -1.938825e-03 -7.423563e-05 0.000000e+00  -1.792681e-03 -7.332255e-05 0.000000e+00  -1.648578e-03 -7.216676e-05 0.000000e+00  -1.506981e-03 -7.076431e-05 0.000000e+00  -1.368397e-03 -6.911213e-05 0.000000e+00  -1.233338e-03 -6.720795e-05 0.000000e+00  -1.102284e-03 -6.504974e-05 0.000000e+00  -9.757187e-04 -6.263621e-05 0.000000e+00  -8.541603e-04 -5.996767e-05 0.000000e+00  -7.381221e-04 -5.704568e-05 0.000000e+00  -6.280825e-04 -5.387250e-05 0.000000e+00  -5.245154e-04 -5.045191e-05 0.000000e+00  -4.279108e-04 -4.679054e-05 0.000000e+00  -3.387395e-04 -4.289767e-05 0.000000e+00  -2.574265e-04 -3.878469e-05 0.000000e+00  -1.843723e-04 -3.446687e-05 0.000000e+00  -1.199597e-04 -2.996563e-05 0.000000e+00  -6.451721e-05 -2.530914e-05 0.000000e+00  -1.829355e-05 -2.053326e-05 0.000000e+00  1.854311e-05 -1.568566e-05 0.000000e+00  4.592645e-05 -1.083171e-05 0.000000e+00  6.394512e-05 -6.059749e-06 0.000000e+00  7.289627e-05 -1.489771e-06 0.000000e+00  7.334963e-05 2.709996e-06 0.000000e+00  6.625842e-05 6.298272e-06 0.000000e+00  5.311846e-05 8.925354e-06 0.000000e+00  3.617392e-05 1.008021e-05 0.000000e+00  1.873546e-05 9.060835e-06 0.000000e+00  5.119329e-06 5.119727e-06 0.000000e+00  0.000000e+00 0.000000e+00 0.000000e+00  0.000000e+00 0.000000e+00 0.000000e+00  9.132927e-06 -1.865577e-05 0.000000e+00  2.954529e-05 -2.953000e-05 0.000000e+00  5.360687e-05 -3.163525e-05 0.000000e+00  7.511658e-05 -2.675758e-05 0.000000e+00  8.923034e-05 -1.685228e-05 0.000000e+00  9.229211e-05 -3.487813e-06 0.000000e+00  8.171000e-05 1.217661e-05 0.000000e+00  5.571893e-05 2.929651e-05 0.000000e+00  1.319472e-05 4.725466e-05 0.000000e+00  -4.649801e-05 6.559600e-05 0.000000e+00  -1.236215e-04 8.398140e-05 0.000000e+00  -2.181518e-04 1.021556e-04 0.000000e+00  -3.298371e-04 1.199239e-04 0.000000e+00  -4.582855e-04 1.371414e-04 0.000000e+00  -6.029366e-04 1.536926e-04 0.000000e+00  -7.631182e-04 1.694881e-04 0.000000e+00  -9.381175e-04 1.844637e-04 0.000000e+00  -1.127167e-03 1.985704e-04 0.000000e+00  -1.329406e-03 2.117684e-04 0.000000e+00  -1.543929e-03 2.240284e-04 0.000000e+00  -1.769859e-03 2.353330e-04 0.000000e+00  -2.006307e-03 2.456709e-04 0.000000e+00  -2.252310e-03 2.550336e-04 0.000000e+00  -2.506895e-03 2.634181e-04 0.000000e+00  -2.769150e-03 2.708275e-04 0.000000e+00  -3.038170e-03 2.772677e-04 0.000000e+00  -3.312986e-03 2.827460e-04 0.000000e+00  -3.592632e-03 2.872724e-04 0.000000e+00  -3.876226e-03 2.908605e-04 0.000000e+00  -4.162898e-03 2.935255e-04 0.000000e+00  -4.451720e-03 2.952830e-04 0.000000e+00  -4.741780e-03 2.961510e-04 0.000000e+00  -5.032255e-03 2.961488e-04 0.000000e+00  -5.322343e-03 2.952966e-04 0.000000e+00  -5.611187e-03 2.936155e-04 0.000000e+00  -5.897949e-03 2.911282e-04 0.000000e+00  -6.181889e-03 2.878574e-04 0.000000e+00  -6.462287e-03 2.838263e-04 0.000000e+00  -6.738375e-03 2.790596e-04 0.000000e+00  -7.009409e-03 2.735831e-04 0.000000e+00  -7.274741e-03 2.674215e-04 0.000000e+00  -7.533744e-03 2.606000e-04 0.000000e+00  -7.785752e-03 2.531458e-04 0.000000e+00  -8.030125e-03 2.450865e-04 0.000000e+00  -8.266314e-03 2.364486e-04 0.000000e+00  -8.493794e-03 2.272583e-04 0.000000e+00  -8.712006e-03 2.175445e-04 0.000000e+00  -8.920423e-03 2.073365e-04 0.000000e+00  -9.118602e-03 1.966615e-04 0.000000e+00  -9.306120e-03 1.855465e-04 0.000000e+00  -9.482535e-03 1.740217e-04 0.000000e+00  -9.647438e-03 1.621173e-04 0.000000e+00  -9.800491e-03 1.498610e-04 0.000000e+00  -9.941381e-03 1.372802e-04 0.000000e+00  -1.006978e-02 1.244056e-04 0.000000e+00  -1.018541e-02 1.112683e-04 0.000000e+00  -1.028803e-02 9.789596e-05 0.000000e+00  -1.037745e-02 8.431608e-05 0.000000e+00  -1.045345e-02 7.055978e-05 0.000000e+00  -1.051587e-02 5.665823e-05 0.000000e+00  -1.056459e-02 4.263908e-05 0.000000e+00  -1.059952e-02 2.852990e-05 0.000000e+00  -1.062057e-02 1.436191e-05 0.000000e+00  -1.062770e-02 1.663130e-07 0.000000e+00  -1.062091e-02 -1.402929e-05 0.000000e+00  -1.060019e-02 -2.819734e-05 0.000000e+00  -1.056560e-02 -4.230659e-05 0.000000e+00  -1.051721e-02 -5.632589e-05 0.000000e+00  -1.045512e-02 -7.022768e-05 0.000000e+00  -1.037946e-02 -8.398436e-05 0.000000e+00  -1.029038e-02 -9.756482e-05 0.000000e+00  -1.018809e-02 -1.109381e-04 0.000000e+00  -1.007279e-02 -1.240766e-04 0.000000e+00  -9.944720e-03 -1.369529e-04 0.000000e+00  -9.804156e-03 -1.495362e-04 0.000000e+00  -9.651425e-03 -1.617960e-04 0.000000e+00  -9.486840e-03 -1.737050e-04 0.000000e+00  -9.310736e-03 -1.852359e-04 0.000000e+00  -9.123522e-03 -1.963586e-04 0.000000e+00  -8.925638e-03 -2.070434e-04 0.000000e+00  -8.717504e-03 -2.172635e-04 0.000000e+00  -8.499562e-03 -2.269922e-04 0.000000e+00  -8.272334e-03 -2.362003e-04 0.000000e+00  -8.036378e-03 -2.448592e-04 0.000000e+00  -7.792215e-03 -2.529429e-04 0.000000e+00  -7.540391e-03 -2.604252e-04 0.000000e+00  -7.281541e-03 -2.672784e-04 0.000000e+00  -7.016330e-03 -2.734751e-04 0.000000e+00  -6.745380e-03 -2.789902e-04 0.000000e+00  -6.469338e-03 -2.837984e-04 0.000000e+00  -6.188944e-03 -2.878735e-04 0.000000e+00  -5.904964e-03 -2.911903e-04 0.000000e+00  -5.618117e-03 -2.937248e-04 0.000000e+00  -5.329143e-03 -2.954533e-04 0.000000e+00  -5.038879e-03 -2.963525e-04 0.000000e+00  -4.748183e-03 -2.964000e-04 0.000000e+00  -4.457860e-03 -2.955747e-04 0.000000e+00  -4.168735e-03 -2.938564e-04 0.000000e+00  -3.881725e-03 -2.912262e-04 0.000000e+00  -3.597762e-03 -2.876675e-04 0.000000e+00  -3.317721e-03 -2.831645e-04 0.000000e+00  -3.042491e-03 -2.777032e-04 0.000000e+00  -2.773043e-03 -2.712731e-04 0.000000e+00  -2.510353e-03 -2.638668e-04 0.000000e+00  -2.255334e-03 -2.554784e-04 0.000000e+00  -2.008903e-03 -2.461050e-04 0.000000e+00  -1.772039e-03 -2.357501e-04 0.000000e+00  -1.545712e-03 -2.244226e-04 0.000000e+00  -1.330815e-03 -2.121346e-04 0.000000e+00  -1.128231e-03 -1.989042e-04 0.000000e+00  -9.388666e-04 -1.847616e-04 0.000000e+00  -7.635879e-04 -1.697474e-04 0.000000e+00  -6.031637e-04 -1.539115e-04 0.000000e+00  -4.583082e-04 -1.373191e-04 0.000000e+00  -3.296939e-04 -1.200603e-04 0.000000e+00  -2.178811e-04 -1.022518e-04 0.000000e+00  -1.232659e-04 -8.404021e-05 0.000000e+00  -4.608197e-05 -6.561782e-05 0.000000e+00  1.363624e-05 -4.724317e-05 0.000000e+00  5.614987e-05 -2.925877e-05 0.000000e+00  8.210695e-05 -1.211842e-05 0.000000e+00  9.263657e-05 3.561484e-06 0.000000e+00  8.950452e-05 1.693294e-05 0.000000e+00  7.531588e-05 2.683557e-05 0.000000e+00  5.372404e-05 3.171111e-05 0.000000e+00  2.961848e-05 2.960389e-05 0.000000e+00  9.065062e-06 1.873812e-05 0.000000e+00  0.000000e+00 0.000000e+00 0.000000e+00  0.000000e+00 0.000000e+00 0.000000e+00  1.011465e-05 -3.614076e-05 0.000000e+00  3.174356e-05 -5.362466e-05 0.000000e+00  5.495831e-05 -5.480057e-05 0.000000e+00  7.251559e-05 -4.301206e-05 0.000000e+00  7.874055e-05 -2.153782e-05 0.000000e+00  6.923695e-05 6.875371e-06 0.000000e+00  4.073375e-05 4.007411e-05 0.000000e+00  -9.101299e-06 7.641157e-05 0.000000e+00  -8.182748e-05 1.146380e-04 0.000000e+00  -1.783838e-04 1.538036e-04 0.000000e+00  -2.992147e-04 1.931830e-04 0.000000e+00  -4.443717e-04 2.322193e-04 0.000000e+00  -6.135832e-04 2.704797e-04 0.000000e+00  -8.063764e-04 3.076378e-04 0.000000e+00  -1.022027e-03 3.434290e-04 0.000000e+00  -1.259642e-03 3.776469e-04 0.000000e+00  -1.518265e-03 4.101395e-04 0.000000e+00  -1.796850e-03 4.407897e-04 0.000000e+00  -2.094208e-03 4.695013e-04 0.000000e+00  -2.409079e-03 4.962022e-04 0.000000e+00  -2.740238e-03 5.208465e-04 0.000000e+00  -3.086436e-03 5.434031e-04 0.000000e+00  -3.446311e-03 5.638479e-04 0.000000e+00  -3.818481e-03 5.821691e-04 0.000000e+00  -4.201651e-03 5.983689e-04 0.000000e+00  -4.594529e-03 6.124566e-04 0.000000e+00  -4.995727e-03 6.244444e-04 0.000000e+00  -5.403859e-03 6.343517e-04 0.000000e+00  -5.817659e-03 6.422054e-04 0.000000e+00  -6.235875e-03 6.480363e-04 0.000000e+00  -6.657169e-03 6.518771e-04 0.000000e+00  -7.080221e-03 6.537652e-04 0.000000e+00  -7.503845e-03 6.537415e-04 0.000000e+00  -7.926878e-03 6.518490e-04 0.000000e+00  -8.348078e-03 6.481330e-04 0.000000e+00  -8.766232e-03 6.426422e-04 0.000000e+00  -9.180264e-03 6.354259e-04 0.000000e+00  -9.589130e-03 6.265343e-04 0.000000e+00  -9.991710e-03 6.160210e-04 0.000000e+00  -1.038693e-02 6.039421e-04 0.000000e+00  -1.077383e-02 5.903521e-04 0.000000e+00  -1.115152e-02 5.753055e-04 0.000000e+00  -1.151901e-02 5.588620e-04 0.000000e+00  -1.187537e-02 5.410827e-04 0.000000e+00  -1.221981e-02 5.220251e-04 0.000000e+00  -1.255156e-02 5.017471e-04 0.000000e+00  -1.286980e-02 4.803122e-04 0.000000e+00  -1.317376e-02 4.577852e-04 0.000000e+00  -1.346280e-02 4.342257e-04 0.000000e+00  -1.373630e-02 4.096934e-04 0.000000e+00  -1.399361e-02 3.842546e-04 0.000000e+00  -1.423414e-02 3.579765e-04 0.000000e+00  -1.445739e-02 3.309198e-04 0.000000e+00  -1.466290e-02 3.031452e-04 0.000000e+00  -1.485021e-02 2.747207e-04 0.000000e+00  -1.501888e-02 2.457147e-04 0.000000e+00  -1.516858e-02 2.161884e-04 0.000000e+00  -1.529902e-02 1.862027e-04 0.000000e+00  -1.540989e-02 1.558265e-04 0.000000e+00  -1.550095e-02 1.251288e-04 0.000000e+00  -1.557204e-02 9.417061e-05 0.000000e+00  -1.562300e-02 6.301311e-05 0.000000e+00  -1.565372e-02 3.172531e-05 0.000000e+00  -1.566413e-02 3.763450e-07 0.000000e+00  -1.565422e-02 -3.097272e-05 0.000000e+00  -1.562401e-02 -6.226082e-05 0.000000e+00  -1.557355e-02 -9.341884e-05 0.000000e+00  -1.550297e-02 -1.243778e-04 0.000000e+00  -1.541241e-02 -1.550767e-04 0.000000e+00  -1.530204e-02 -1.854545e-04 0.000000e+00  -1.517210e-02 -2.154423e-04 0.000000e+00  -1.502289e-02 -2.449715e-04 0.000000e+00  -1.485472e-02 -2.739815e-04 0.000000e+00  -1.466790e-02 -3.024113e-04 0.000000e+00  -1.446287e-02 -3.301928e-04 0.000000e+00  -1.424010e-02 -3.572586e-04 0.000000e+00  -1.400004e-02 -3.835484e-04 0.000000e+00  -1.374319e-02 -4.090022e-04 0.000000e+00  -1.347014e-02 -4.335532e-04 0.000000e+00  -1.318153e-02 -4.571360e-04 0.000000e+00  -1.287798e-02 -4.796915e-04 0.000000e+00  -1.256013e-02 -5.011607e-04 0.000000e+00  -1.222875e-02 -5.214794e-04 0.000000e+00  -1.188464e-02 -5.405847e-04 0.000000e+00  -1.152858e-02 -5.584191e-04 0.000000e+00  -1.116135e-02 -5.749252e-04 0.000000e+00  -1.078388e-02 -5.900421e-04 0.000000e+00  -1.039715e-02 -6.037099e-04 0.000000e+00  -1.000205e-02 -6.158736e-04 0.000000e+00  -9.599530e-03 -6.264779e-04 0.000000e+00  -9.190666e-03 -6.354658e-04 0.000000e+00  -8.776572e-03 -6.427823e-04 0.000000e+00  -8.358292e-03 -6.483756e-04 0.000000e+00  -7.936901e-03 -6.521946e-04 0.000000e+00  -7.513611e-03 -6.541888e-04 0.000000e+00  -7.089668e-03 -6.543106e-04 0.000000e+00  -6.666237e-03 -6.525150e-04 0.000000e+00  -6.244508e-03 -6.487589e-04 