<?xml version="1.0"?>
<VTKFile type="UnstructuredGrid"  version="0.1"  >
<UnstructuredGrid>
<Piece  NumberOfPoints="16641" NumberOfCells="32768">
<Points>
<DataArray  type="Float32"  NumberOfComponents="3"  format="ascii">0 0 0  0.0078125 0 0  0.015625 0 0  0.0234375 0 0  0.03125 0 0  0.0390625 0 0  0.046875 0 0  0.0546875 0 0  0.0625 0 0  0.0703125 0 0  0.078125 0 0  0.0859375 0 0  0.09375 0 0  0.101562 0 0  0.109375 0 0  0.117188 0 0  0.125 0 0  0.132812 0 0  0.140625 0 0  0.148438 0 0  0.15625 0 0  0.164062 0 0  0.171875 0 0  0.179688 0 0  0.1875 0 0  0.195312 0 0  0.203125 0 0  0.210938 0 0  0.21875 0 0  0.226562 0 0  0.234375 0 0  0.242188 0 0  0.25 0 0  0.257812 0 0  0.265625 0 0  0.273438 0 0  0.28125 0 0  0.289062 0 0  0.296875 0 0  0.304688 0 0  0.3125 0 0  0.320312 0 0  0.328125 0 0  0.335938 0 0  0.34375 0 0  0.351562 0 0  0.359375 0 0  0.367188 0 0  0.375 0 0  0.382812 0 0  0.390625 0 0  0.398438 0 0  0.40625 0 0  0.414062 0 0  0.421875 0 0  0.429688 0 0  0.4375 0 0  0.445312 0 0  0.453125 0 0  0.460938 0 0  0.46875 0 0  0.476562 0 0  0.484375 0 0  0.492188 0 0  0.5 0 0  0.507812 0 0  0.515625 0 0  0.523438 0 0  0.53125 0 0  0.539062 0 0  0.546875 0 0  0.554688 0 0  0.5625 0 0  0.570312 0 0  0.578125 0 0  0.585938 0 0  0.59375 0 0  0.601562 0 0  0.609375 0 0  0.617188 0 0  0.625 0 0  0.632812 0 0  0.640625 0 0  0.648438 0 0  0.65625 0 0  0.664062 0 0  0.671875 0 0  0.679688 0 0  0.6875 0 0  0.695312 0 0  0.703125 0 0  0.710938 0 0  0.71875 0 0  0.726562 0 0  0.734375 0 0  0.742188 0 0  0.75 0 0  0.757812 0 0  0.765625 0 0  0.773438 0 0  0.78125 0 0  0.789062 0 0  0.796875 0 0  0.804688 0 0  0.8125 0 0  0.820312 0 0  0.828125 0 0  0.835938 0 0  0.84375 0 0  0.851562 0 0  0.859375 0 0  0.867188 0 0  0.875 0 0  0.882812 0 0  0.890625 0 0  0.898438 0 0  0.90625 0 0  0.914062 0 0  0.921875 0 0  0.929688 0 0  0.9375 0 0  0.945312 0 0  0.953125 0 0  0.960938 0 0  0.96875 0 0  0.976562 0 0  0.984375 0 0  0.992188 0 0  1 0 0  0 0.0078125 0  0.0078125 0.0078125 0  0.015625 0.0078125 0  0.0234375 0.0078125 0  0.03125 0.0078125 0  0.0390625 0.0078125 0  0.046875 0.0078125 0  0.0546875 0.0078125 0  0.0625 0.0078125 0  0.0703125 0.0078125 0  0.078125 0.0078125 0  0.0859375 0.0078125 0  0.09375 0.0078125 0  0.101562 0.0078125 0  0.109375 0.0078125 0  0.117188 0.0078125 0  0.125 0.0078125 0  0.132812 0.0078125 0  0.140625 0.0078125 0  0.148438 0.0078125 0  0.15625 0.0078125 0  0.164062 0.0078125 0  0.171875 0.0078125 0  0.179688 0.0078125 0  0.1875 0.0078125 0  0.195312 0.0078125 0  0.203125 0.0078125 0  0.210938 0.0078125 0  0.21875 0.0078125 0  0.226562 0.0078125 0  0.234375 0.0078125 0  0.242188 0.0078125 0  0.25 0.0078125 0  0.257812 0.0078125 0  0.265625 0.0078125 0  0.273438 0.0078125 0  0.28125 0.0078125 0  0.289062 0.0078125 0  0.296875 0.0078125 0  0.304688 0.0078125 0  0.3125 0.0078125 0  0.320312 0.0078125 0  0.328125 0.0078125 0  0.335938 0.0078125 0  0.34375 0.0078125 0  0.351562 0.0078125 0  0.359375 0.0078125 0  0.367188 0.0078125 0  0.375 0.0078125 0  0.382812 0.0078125 0  0.390625 0.0078125 0  0.398438 0.0078125 0  0.40625 0.0078125 0  0.414062 0.0078125 0  0.421875 0.0078125 0  0.429688 0.0078125 0  0.4375 0.0078125 0  0.445312 0.0078125 0  0.453125 0.0078125 0  0.460938 0.0078125 0  0.46875 0.0078125 0  0.476562 0.0078125 0  0.484375 0.0078125 0  0.492188 0.0078125 0  0.5 0.0078125 0  0.507812 0.0078125 0  0.515625 0.0078125 0  0.523438 0.0078125 0  0.53125 0.0078125 0  0.539062 0.0078125 0  0.546875 0.0078125 0  0.554688 0.0078125 0  0.5625 0.0078125 0  0.570312 0.0078125 0  0.578125 0.0078125 0  0.585938 0.0078125 0  0.59375 0.0078125 0  0.601562 0.0078125 0  0.609375 0.0078125 0  0.617188 0.0078125 0  0.625 0.0078125 0  0.632812 0.0078125 0  0.640625 0.0078125 0  0.648438 0.0078125 0  0.65625 0.0078125 0  0.664062 0.0078125 0  0.671875 0.0078125 0  0.679688 0.0078125 0  0.6875 0.0078125 0  0.695312 0.0078125 0  0.703125 0.0078125 0  0.710938 0.0078125 0  0.71875 0.0078125 0  0.726562 0.0078125 0  0.734375 0.0078125 0  0.742188 0.0078125 0  0.75 0.0078125 0  0.757812 0.0078125 0  0.765625 0.0078125 0  0.773438 0.0078125 0  0.78125 0.0078125 0  0.789062 0.0078125 0  0.796875 0.0078125 0  0.804688 0.0078125 0  0.8125 0.0078125 0  0.820312 0.0078125 0  0.828125 0.0078125 0  0.835938 0.0078125 0  0.84375 0.0078125 0  0.851562 0.0078125 0  0.859375 0.0078125 0  0.867188 0.0078125 0  0.875 0.0078125 0  0.882812 0.0078125 0  0.890625 0.0078125 0  0.898438 0.0078125 0  0.90625 0.0078125 0  0.914062 0.0078125 0  0.921875 0.0078125 0  0.929688 0.0078125 0  0.9375 0.0078125 0  0.945312 0.0078125 0  0.953125 0.0078125 0  0.960938 0.0078125 0  0.96875 0.0078125 0  0.976562 0.0078125 0  0.984375 0.0078125 0  0.992188 0.0078125 0  1 0.0078125 0  0 0.015625 0  0.0078125 0.015625 0  0.015625 0.015625 0  0.0234375 0.015625 0  0.03125 0.015625 0  0.0390625 0.015625 0  0.046875 0.015625 0  0.0546875 0.015625 0  0.0625 0.015625 0  0.0703125 0.015625 0  0.078125 0.015625 0  0.0859375 0.015625 0  0.09375 0.015625 0  0.101562 0.015625 0  0.109375 0.015625 0  0.117188 0.015625 0  0.125 0.015625 0  0.132812 0.015625 0  0.140625 0.015625 0  0.148438 0.015625 0  0.15625 0.015625 0  0.164062 0.015625 0  0.171875 0.015625 0  0.179688 0.015625 0  0.1875 0.015625 0  0.195312 0.015625 0  0.203125 0.015625 0  0.210938 0.015625 0  0.21875 0.015625 0  0.226562 0.015625 0  0.234375 0.015625 0  0.242188 0.015625 0  0.25 0.015625 0  0.257812 0.015625 0  0.265625 0.015625 0  0.273438 0.015625 0  0.28125 0.015625 0  0.289062 0.015625 0  0.296875 0.015625 0  0.304688 0.015625 0  0.3125 0.015625 0  0.320312 0.015625 0  0.328125 0.015625 0  0.335938 0.015625 0  0.34375 0.015625 0  0.351562 0.015625 0  0.359375 0.015625 0  0.367188 0.015625 0  0.375 0.015625 0  0.382812 0.015625 0  0.390625 0.015625 0  0.398438 0.015625 0  0.40625 0.015625 0  0.414062 0.015625 0  0.421875 0.015625 0  0.429688 0.015625 0  0.4375 0.015625 0  0.445312 0.015625 0  0.453125 0.015625 0  0.460938 0.015625 0  0.46875 0.015625 0  0.476562 0.015625 0  0.484375 0.015625 0  0.492188 0.015625 0  0.5 0.015625 0  0.507812 0.015625 0  0.515625 0.015625 0  0.523438 0.015625 0  0.53125 0.015625 0  0.539062 0.015625 0  0.546875 0.015625 0  0.554688 0.015625 0  0.5625 0.015625 0  0.570312 0.015625 0  0.578125 0.015625 0  0.585938 0.015625 0  0.59375 0.015625 0  0.601562 0.015625 0  0.609375 0.015625 0  0.617188 0.015625 0  0.625 0.015625 0  0.632812 0.015625 0  0.640625 0.015625 0  0.648438 0.015625 0  0.65625 0.015625 0  0.664062 0.015625 0  0.671875 0.015625 0  0.679688 0.015625 0  0.6875 0.015625 0  0.695312 0.015625 0  0.703125 0.015625 0  0.710938 0.015625 0  0.71875 0.015625 0  0.726562 0.015625 0  0.734375 0.015625 0  0.742188 0.015625 0  0.75 0.015625 0  0.757812 0.015625 0  0.765625 0.015625 0  0.773438 0.015625 0  0.78125 0.015625 0  0.789062 0.015625 0  0.796875 0.015625 0  0.804688 0.015625 0  0.8125 0.015625 0  0.820312 0.015625 0  0.828125 0.015625 0  0.835938 0.015625 0  0.84375 0.015625 0  0.851562 0.015625 0  0.859375 0.015625 0  0.867188 0.015625 0  0.875 0.015625 0  0.882812 0.015625 0  0.890625 0.015625 0  0.898438 0.015625 0  0.90625 0.015625 0  0.914062 0.015625 0  0.921875 0.015625 0  0.929688 0.015625 0  0.9375 0.015625 0  0.945312 0.015625 0  0.953125 0.015625 0  0.960938 0.015625 0  0.96875 0.015625 0  0.976562 0.015625 0  0.984375 0.015625 0  0.992188 0.015625 0  1 0.015625 0  0 0.0234375 0  0.0078125 0.0234375 0  0.015625 0.0234375 0  0.0234375 0.0234375 0  0.03125 0.0234375 0  0.0390625 0.0234375 0  0.046875 0.0234375 0  0.0546875 0.0234375 0  0.0625 0.0234375 0  0.0703125 0.0234375 0  0.078125 0.0234375 0  0.0859375 0.0234375 0  0.09375 0.0234375 0  0.101562 0.0234375 0  0.109375 0.0234375 0  0.117188 0.0234375 0  0.125 0.0234375 0  0.132812 0.0234375 0  0.140625 0.0234375 0  0.148438 0.0234375 0  0.15625 0.0234375 0  0.164062 0.0234375 0  0.171875 0.0234375 0  0.179688 0.0234375 0  0.1875 0.0234375 0  0.195312 0.0234375 0  0.203125 0.0234375 0  0.210938 0.0234375 0  0.21875 0.0234375 0  0.226562 0.0234375 0  0.234375 0.0234375 0  0.242188 0.0234375 0  0.25 0.0234375 0  0.257812 0.0234375 0  0.265625 0.0234375 0  0.273438 0.0234375 0  0.28125 0.0234375 0  0.289062 0.0234375 0  0.296875 0.0234375 0  0.304688 0.0234375 0  0.3125 0.0234375 0  0.320312 0.0234375 0  0.328125 0.0234375 0  0.335938 0.0234375 0  0.34375 0.0234375 0  0.351562 0.0234375 0  0.359375 0.0234375 0  0.367188 0.0234375 0  0.375 0.0234375 0  0.382812 0.0234375 0  0.390625 0.0234375 0  0.398438 0.0234375 0  0.40625 0.0234375 0  0.414062 0.0234375 0  0.421875 0.0234375 0  0.429688 0.0234375 0  0.4375 0.0234375 0  0.445312 0.0234375 0  0.453125 0.0234375 0  0.460938 0.0234375 0  0.46875 0.0234375 0  0.476562 0.0234375 0  0.484375 0.0234375 0  0.492188 0.0234375 0  0.5 0.0234375 0  0.507812 0.0234375 0  0.515625 0.0234375 0  0.523438 0.0234375 0  0.53125 0.0234375 0  0.539062 0.0234375 0  0.546875 0.0234375 0  0.554688 0.0234375 0  0.5625 0.0234375 0  0.570312 0.0234375 0  0.578125 0.0234375 0  0.585938 0.0234375 0  0.59375 0.0234375 0  0.601562 0.0234375 0  0.609375 0.0234375 0  0.617188 0.0234375 0  0.625 0.0234375 0  0.632812 0.0234375 0  0.640625 0.0234375 0  0.648438 0.0234375 0  0.65625 0.0234375 0  0.664062 0.0234375 0  0.671875 0.0234375 0  0.679688 0.0234375 0  0.6875 0.0234375 0  0.695312 0.0234375 0  0.703125 0.0234375 0  0.710938 0.0234375 0  0.71875 0.0234375 0  0.726562 0.0234375 0  0.734375 0.0234375 0  0.742188 0.0234375 0  0.75 0.0234375 0  0.757812 0.0234375 0  0.765625 0.0234375 0  0.773438 0.0234375 0  0.78125 0.0234375 0  0.789062 0.0234375 0  0.796875 0.0234375 0  0.804688 0.0234375 0  0.8125 0.0234375 0  0.820312 0.0234375 0  0.828125 0.0234375 0  0.835938 0.0234375 0  0.84375 0.0234375 0  0.851562 0.0234375 0  0.859375 0.0234375 0  0.867188 0.0234375 0  0.875 0.0234375 0  0.882812 0.0234375 0  0.890625 0.0234375 0  0.898438 0.0234375 0  0.90625 0.0234375 0  0.914062 0.0234375 0  0.921875 0.0234375 0  0.929688 0.0234375 0  0.9375 0.0234375 0  0.945312 0.0234
[...]
<PointData  Vectors="u"> 
<DataArray  type="Float32"  Name="u"  NumberOfComponents="3" format="ascii">0.000000e+00 0.000000e+00 0.000000e+00  0.000000e+00 0.000000e+00 0.000000e+00  0.000000e+00 0.000000e+00 0.000000e+00  0.000000e+00 0.000000e+00 0.000000e+00  0.000000e+00 0.000000e+00 0.000000e+00  0.000000e+00 0.000000e+00 0.000000e+00  0.000000e+00 0.000000e+00 0.000000e+00  0.000000e+00 0.000000e+00 0.000000e+00  0.000000e+00 0.000000e+00 0.000000e+00  0.000000e+00 0.000000e+00 0.000000e+00  0.000000e+00 0.000000e+00 0.000000e+00  0.000000e+00 0.000000e+00 0.000000e+00  0.000000e+00 0.000000e+00 0.000000e+00  0.000000e+00 0.000000e+00 0.000000e+00  0.000000e+00 0.000000e+00 0.000000e+00  0.000000e+00 0.000000e+00 0.000000e+00  0.000000e+00 0.000000e+00 0.000000e+00  0.000000e+00 0.000000e+00 0.000000e+00  0.000000e+00 0.000000e+00 0.000000e+00  0.000000e+00 0.000000e+00 0.000000e+00  0.000000e+00 0.000000e+00 0.000000e+00  0.000000e+00 0.000000e+00 0.000000e+00  0.000000e+00 0.000000e+00 0.000000e+00  0.000000e+00 0.000000e+00 0.000000e+00  0.000000e+00 0.000000e+00 0.000000e+00  0.000000e+00 0.000000e+00 0.000000e+00  0.000000e+00 0.000000e+00 0.000000e+00  0.000000e+00 0.000000e+00 0.000000e+00  0.000000e+00 0.000000e+00 0.000000e+00  0.000000e+00 0.000000e+00 0.000000e+00  0.000000e+00 0.000000e+00 0.000000e+00  0.000000e+00 0.000000e+00 0.000000e+00  0.000000e+00 0.000000e+00 0.000000e+00  0.000000e+00 0.000000e+00 0.000000e+00  0.000000e+00 0.000000e+00 0.000000e+00  0.000000e+00 0.000000e+00 0.000000e+00  0.000000e+00 0.000000e+00 0.000000e+00  0.000000e+00 0.000000e+00 0.000000e+00  0.000000e+00 0.000000e+00 0.000000e+00  0.000000e+00 0.000000e+00 0.000000e+00  0.000000e+00 0.000000e+00 0.000000e+00  0.000000e+00 0.000000e+00 0.000000e+00  0.000000e+00 0.000000e+00 0.000000e+00  0.000000e+00 0.000000e+00 0.000000e+00  0.000000e+00 0.000000e+00 0.000000e+00  0.000000e+00 0.000000e+00 0.000000e+00  0.000000e+00 0.000000e+00 0.000000e+00  0.000000e+00 0.000000e+00 0.000000e+00  0.000000e+00 0.000000e+00 0.000000e+00  0.000000e+00 0.000000e+00 0.000000e+00  0.000000e+00 0.000000e+00 0.000000e+00  0.000000e+00 0.000000e+00 0.000000e+00  0.000000e+00 0.000000e+00 0.000000e+00  0.000000e+00 0.000000e+00 0.000000e+00  0.000000e+00 0.000000e+00 0.000000e+00  0.000000e+00 0.000000e+00 0.000000e+00  0.000000e+00 0.000000e+00 0.000000e+00  0.000000e+00 0.000000e+00 0.000000e+00  0.000000e+00 0.000000e+00 0.000000e+00  0.000000e+00 0.000000e+00 0.000000e+00  0.000000e+00 0.000000e+00 0.000000e+00  0.000000e+00 0.000000e+00 0.000000e+00  0.000000e+00 0.000000e+00 0.000000e+00  0.000000e+00 0.000000e+00 0.000000e+00  0.000000e+00 0.000000e+00 0.000000e+00  0.000000e+00 0.000000e+00 0.000000e+00  0.000000e+00 0.000000e+00 0.000000e+00  0.000000e+00 0.000000e+00 0.000000e+00  0.000000e+00 0.000000e+00 0.000000e+00  0.000000e+00 0.000000e+00 0.000000e+00  0.000000e+00 0.000000e+00 0.000000e+00  0.000000e+00 0.000000e+00 0.000000e+00  0.000000e+00 0.000000e+00 0.000000e+00  0.000000e+00 0.000000e+00 0.000000e+00  0.000000e+00 0.000000e+00 0.000000e+00  0.000000e+00 0.000000e+00 0.000000e+00  0.000000e+00 0.000000e+00 0.000000e+00  0.000000e+00 0.000000e+00 0.000000e+00  0.000000e+00 0.000000e+00 0.000000e+00  0.000000e+00 0.000000e+00 0.000000e+00  0.000000e+00 0.000000e+00 0.000000e+00  0.000000e+00 0.000000e+00 0.000000e+00  0.000000e+00 0.000000e+00 0.000000e+00  0.000000e+00 0.000000e+00 0.000000e+00  0.000000e+00 0.000000e+00 0.000000e+00  0.000000e+00 0.000000e+00 0.000000e+00  0.000000e+00 0.000000e+00 0.000000e+00  0.000000e+00 0.000000e+00 0.000000e+00  0.000000e+00 0.000000e+00 0.000000e+00  0.000000e+00 0.000000e+00 0.000000e+00  0.000000e+00 0.000000e+00 0.000000e+00  0.000000e+00 0.000000e+00 0.000000e+00  0.000000e+00 0.000000e+00 0.000000e+00  0.000000e+00 0.000000e+00 0.000000e+00  0.000000e+00 0.000000e+00 0.000000e+00  0.000000e+00 0.000000e+00 0.000000e+00  0.000000e+00 0.000000e+00 0.000000e+00  0.000000e+00 0.000000e+00 0.000000e+00  0.000000e+00 0.000000e+00 0.000000e+00  0.000000e+00 0.000000e+00 0.000000e+00  0.000000e+00 0.000000e+00 0.000000e+00  0.000000e+00 0.000000e+00 0.000000e+00  0.000000e+00 0.000000e+00 0.000000e+00  0.000000e+00 0.000000e+00 0.000000e+00  0.000000e+00 0.000000e+00 0.000000e+00  0.000000e+00 0.000000e+00 0.000000e+00  0.000000e+00 0.000000e+00 0.000000e+00  0.000000e+00 0.000000e+00 0.000000e+00  0.000000e+00 0.000000e+00 0.000000e+00  0.000000e+00 0.000000e+00 0.000000e+00  0.000000e+00 0.000000e+00 0.000000e+00  0.000000e+00 0.000000e+00 0.000000e+00  0.000000e+00 0.000000e+00 0.000000e+00  0.000000e+00 0.000000e+00 0.000000e+00  0.000000e+00 0.000000e+00 0.000000e+00  0.000000e+00 0.000000e+00 0.000000e+00  0.000000e+00 0.000000e+00 0.000000e+00  0.000000e+00 0.000000e+00 0.000000e+00  0.000000e+00 0.000000e+00 0.000000e+00  0.000000e+00 0.000000e+00 0.000000e+00  0.000000e+00 0.000000e+00 0.000000e+00  0.000000e+00 0.000000e+00 0.000000e+00  0.000000e+00 0.000000e+00 0.000000e+00  0.000000e+00 0.000000e+00 0.000000e+00  0.000000e+00 0.000000e+00 0.000000e+00  0.000000e+00 0.000000e+00 0.000000e+00  0.000000e+00 0.000000e+00 0.000000e+00  0.000000e+00 0.000000e+00 0.000000e+00  0.000000e+00 0.000000e+00 0.000000e+00  0.000000e+00 0.000000e+00 0.000000e+00  5.250542e-06 -5.250531e-06 0.000000e+00  1.879378e-05 -9.200257e-06 0.000000e+00  3.639827e-05 -1.017312e-05 0.000000e+00  5.344775e-05 -8.986389e-06 0.000000e+00  6.669849e-05 -6.336062e-06 0.000000e+00  7.387555e-05 -2.726201e-06 0.000000e+00  7.347536e-05 1.494326e-06 0.000000e+00  6.453801e-05 6.085544e-06 0.000000e+00  4.649010e-05 1.087864e-05 0.000000e+00  1.903746e-05 1.575277e-05 0.000000e+00  -1.791020e-05 2.062002e-05 0.000000e+00  -6.429216e-05 2.541549e-05 0.000000e+00  -1.199309e-04 3.009046e-05 0.000000e+00  -1.845789e-04 3.460942e-05 0.000000e+00  -2.579060e-04 3.894425e-05 0.000000e+00  -3.395280e-04 4.307367e-05 0.000000e+00  -4.290435e-04 4.698262e-05 0.000000e+00  -5.260267e-04 5.065993e-05 0.000000e+00  -6.300068e-04 5.409662e-05 0.000000e+00  -7.404940e-04 5.728631e-05 0.000000e+00  -8.570155e-04 6.022551e-05 0.000000e+00  -9.790945e-04 6.291226e-05 0.000000e+00  -1.106219e-03 6.534520e-05 0.000000e+00  -1.237875e-03 6.752423e-05 0.000000e+00  -1.373579e-03 6.945077e-05 0.000000e+00  -1.512856e-03 7.112691e-05 0.000000e+00  -1.655196e-03 7.255495e-05 0.000000e+00  -1.800094e-03 7.373785e-05 0.000000e+00  -1.947090e-03 7.467940e-05 0.000000e+00  -2.095730e-03 7.538369e-05 0.000000e+00  -2.245531e-03 7.585498e-05 0.000000e+00  -2.396018e-03 7.609791e-05 0.000000e+00  -2.546763e-03 7.611750e-05 0.000000e+00  -2.697349e-03 7.591892e-05 0.000000e+00  -2.847331e-03 7.550754e-05 0.000000e+00  -2.996275e-03 7.488905e-05 0.000000e+00  -3.143795e-03 7.406914e-05 0.000000e+00  -3.289517e-03 7.305358e-05 0.000000e+00  -3.433040e-03 7.184850e-05 0.000000e+00  -3.573979e-03 7.046028e-05 0.000000e+00  -3.711994e-03 6.889507e-05 0.000000e+00  -3.846758e-03 6.715907e-05 0.000000e+00  -3.977923e-03 6.525901e-05 0.000000e+00  -4.105153e-03 6.320184e-05 0.000000e+00  -4.228160e-03 6.099411e-05 0.000000e+00  -4.346669e-03 5.864241e-05 0.000000e+00  -4.460384e-03 5.615403e-05 0.000000e+00  -4.569030e-03 5.353643e-05 0.000000e+00  -4.672370e-03 5.079654e-05 0.000000e+00  -4.770182e-03 4.794128e-05 0.000000e+00  -4.862233e-03 4.497842e-05 0.000000e+00  -4.948304e-03 4.191584e-05 0.000000e+00  -5.028218e-03 3.876069e-05 0.000000e+00  -5.101808e-03 3.552016e-05 0.000000e+00  -5.168902e-03 3.220230e-05 0.000000e+00  -5.229347e-03 2.881522e-05 0.000000e+00  -5.283021e-03 2.536621e-05 0.000000e+00  -5.329815e-03 2.186253e-05 0.000000e+00  -5.369622e-03 1.831236e-05 0.000000e+00  -5.402353e-03 1.472392e-05 0.000000e+00  -5.427945e-03 1.110451e-05 0.000000e+00  -5.446346e-03 7.461399e-06 0.000000e+00  -5.457514e-03 3.802812e-06 0.000000e+00  -5.461426e-03 1.369787e-07 0.000000e+00  -5.458076e-03 -3.528816e-06 0.000000e+00  -5.447469e-03 -7.187297e-06 0.000000e+00  -5.429630e-03 -1.083025e-05 0.000000e+00  -5.404600e-03 -1.444946e-05 0.000000e+00  -5.372430e-03 -1.803769e-05 0.000000e+00  -5.333186e-03 -2.158766e-05 0.000000e+00  -5.286953e-03 -2.509123e-05 0.000000e+00  -5.233840e-03 -2.854030e-05 0.000000e+00  -5.173956e-03 -3.192770e-05 0.000000e+00  -5.107421e-03 -3.524626e-05 0.000000e+00  -5.034387e-03 -3.848805e-05 0.000000e+00  -4.955025e-03 -4.164518e-05 0.000000e+00  -4.869499e-03 -4.471070e-05 0.000000e+00  -4.777987e-03 -4.767769e-05 0.000000e+00  -4.680702e-03 -5.053855e-05 0.000000e+00  -4.577875e-03 -5.328581e-05 0.000000e+00  -4.469726e-03 -5.591282e-05 0.000000e+00  -4.356484e-03 -5.841295e-05 0.000000e+00  -4.238423e-03 -6.077904e-05 0.000000e+00  -4.115830e-03 -6.300403e-05 0.000000e+00  -3.988977e-03 -6.508151e-05 0.000000e+00  -3.858145e-03 -6.700508e-05 0.000000e+00  -3.723662e-03 -6.876784e-05 0.000000e+00  -3.585872e-03 -7.036300e-05 0.000000e+00  -3.445096e-03 -7.178419e-05 0.000000e+00  -3.301666e-03 -7.302498e-05 0.000000e+00  -3.155965e-03 -7.407860e-05 0.000000e+00  -3.008388e-03 -7.493837e-05 0.000000e+00  -2.859308e-03 -7.559786e-05 0.000000e+00  -2.709107e-03 -7.605065e-05 0.000000e+00  -2.558221e-03 -7.629022e-05 0.000000e+00  -2.407096e-03 -7.631030e-05 0.000000e+00  -2.256153e-03 -7.610485e-05 0.000000e+00  -2.105824e-03 -7.566797e-05 0.000000e+00  -1.956592e-03 -7.499415e-05 0.000000e+00  -1.808947e-03 -7.407843e-05 0.000000e+00  -1.663354e-03 -7.291608e-05 0.000000e+00  -1.520283e-03 -7.150283e-05 0.000000e+00  -1.380251e-03 -6.983539e-05 0.000000e+00  -1.243779e-03 -6.791131e-05 0.000000e+00  -1.111355e-03 -6.572855e-05 0.000000e+00  -9.834729e-04 -6.328587e-05 0.000000e+00  -8.606593e-04 -6.058371e-05 0.000000e+00  -7.434361e-04 -5.762390e-05 0.000000e+00  -6.322896e-04 -5.440901e-05 0.000000e+00  -5.277006e-04 -5.094319e-05 0.000000e+00  -4.301659e-04 -4.723353e-05 0.000000e+00  -3.401616e-04 -4.328979e-05 0.000000e+00  -2.581172e-04 -3.912389e-05 0.000000e+00  -1.844366e-04 -3.475165e-05 0.000000e+00  -1.195048e-04 -3.019510e-05 0.000000e+00  -6.365155e-05 -2.548309e-05 0.000000e+00  -1.712501e-05 -2.065220e-05 0.000000e+00  1.990859e-05 -1.575095e-05 0.000000e+00  4.738661e-05 -1.084571e-05 0.000000e+00  6.540363e-05 -6.026073e-06 0.000000e+00  7.426546e-05 -1.413583e-06 0.000000e+00  7.455380e-05 2.821491e-06 0.000000e+00  6.723834e-05 6.435128e-06 0.000000e+00  5.383718e-05 9.073920e-06 0.000000e+00  3.662413e-05 1.022188e-05 0.000000e+00  1.894882e-05 9.171297e-06 0.000000e+00  5.171568e-06 5.171981e-06 0.000000e+00  0.000000e+00 0.000000e+00 0.000000e+00  0.000000e+00 0.000000e+00 0.000000e+00  9.205951e-06 -1.879723e-05 0.000000e+00  2.979464e-05 -2.977910e-05 0.000000e+00  5.408797e-05 -3.193482e-05 0.000000e+00  7.584154e-05 -2.705660e-05 0.000000e+00  9.017498e-05 -1.711138e-05 0.000000e+00  9.340331e-05 -3.678286e-06 0.000000e+00  8.291296e-05 1.207495e-05 0.000000e+00  5.692323e-05 2.929738e-05 0.000000e+00  1.429920e-05 4.736689e-05 0.000000e+00  -4.560145e-05 6.582476e-05 0.000000e+00  -1.230449e-04 8.432914e-05 0.000000e+00  -2.180091e-04 1.026228e-04 0.000000e+00  -3.302422e-04 1.205093e-04 0.000000e+00  -4.593514e-04 1.378432e-04 0.000000e+00  -6.047741e-04 1.545079e-04 0.000000e+00  -7.658355e-04 1.704138e-04 0.000000e+00  -9.418200e-04 1.854964e-04 0.000000e+00  -1.131957e-03 1.997067e-04 0.000000e+00  -1.335383e-03 2.130051e-04 0.000000e+00  -1.551189e-03 2.253625e-04 0.000000e+00  -1.778496e-03 2.367617e-04 0.000000e+00  -2.016412e-03 2.471918e-04 0.000000e+00  -2.263972e-03 2.566447e-04 0.000000e+00  -2.520201e-03 2.651175e-04 0.000000e+00  -2.784186e-03 2.726138e-04 0.000000e+00  -3.055020e-03 2.791396e-04 0.000000e+00  -3.331731e-03 2.847023e-04 0.000000e+00  -3.613355e-03 2.893121e-04 0.000000e+00  -3.899005e-03 2.929824e-04 0.000000e+00  -4.187813e-03 2.957283e-04 0.000000e+00  -4.478848e-03 2.975653e-04 0.000000e+00  -4.771196e-03 2.985107e-04 0.000000e+00  -5.064031e-03 2.985835e-04 0.000000e+00  -5.356550e-03 2.978032e-04 0.000000e+00  -5.647890e-03 2.961903e-04 0.000000e+00  -5.937211e-03 2.937666e-04 0.000000e+00  -6.223767e-03 2.905541e-04 0.000000e+00  -6.506833e-03 2.865749e-04 0.000000e+00  -6.785634e-03 2.818529e-04 0.000000e+00  -7.059417e-03 2.764127e-04 0.000000e+00  -7.327527e-03 2.702783e-04 0.000000e+00  -7.589328e-03 2.634738e-04 0.000000e+00  -7.844143e-03 2.560256e-04 0.000000e+00  -8.091320e-03 2.479608e-04 0.000000e+00  -8.330301e-03 2.393050e-04 0.000000e+00  -8.560548e-03 2.300840e-04 0.000000e+00  -8.781488e-03 2.203263e-04 0.000000e+00  -8.992584e-03 2.100612e-04 0.000000e+00  -9.193378e-03 1.993157e-04 0.000000e+00  -9.383437e-03 1.881172e-04 0.000000e+00  -9.562305e-03 1.764959e-04 0.000000e+00  -9.729560e-03 1.644828e-04 0.000000e+00  -9.884855e-03 1.521060e-04 0.000000e+00  -1.002786e-02 1.393936e-04 0.000000e+00  -1.015825e-02 1.263773e-04 0.000000e+00  -1.027572e-02 1.130888e-04 0.000000e+00  -1.038004e-02 9.955680e-05 0.000000e+00  -1.047099e-02 8.580984e-05 0.000000e+00  -1.054836e-02 7.188003e-05 0.000000e+00  -1.061199e-02 5.779964e-05 0.000000e+00  -1.066174e-02 4.359734e-05 0.000000e+00  -1.069752e-02 2.930179e-05 0.000000e+00  -1.071924e-02 1.494527e-05 0.000000e+00  -1.072685e-02 5.601295e-07 0.000000e+00  -1.072036e-02 -1.382499e-05 0.000000e+00  -1.069976e-02 -2.818147e-05 0.000000e+00  -1.066511e-02 -4.247700e-05 0.000000e+00  -1.061648e-02 -5.667936e-05 0.000000e+00  -1.055398e-02 -7.076002e-05 0.000000e+00  -1.047773e-02 -8.469045e-05 0.000000e+00  -1.038790e-02 -9.843863e-05 0.000000e+00  -1.028470e-02 -1.119727e-04 0.000000e+00  -1.016834e-02 -1.252646e-04 0.000000e+00  -1.003905e-02 -1.382861e-04 0.000000e+00  -9.897140e-03 -1.510061e-04 0.000000e+00  -9.742931e-03 -1.633935e-04 0.000000e+00  -9.576747e-03 -1.754212e-04 0.000000e+00  -9.398931e-03 -1.870619e-04 0.000000e+00  -9.209899e-03 -1.982857e-04 0.000000e+00  -9.010102e-03 -2.090633e-04 0.000000e+00  -8.799964e-03 -2.193686e-04 0.000000e+00  -8.579936e-03 -2.291756e-04 0.000000e+00  -8.350547e-03 -2.384560e-04 0.000000e+00  -8.112357e-03 -2.471822e-04 0.000000e+00  -7.865894e-03 -2.553290e-04 0.000000e+00  -7.611707e-03 -2.628713e-04 0.000000e+00  -7.350434e-03 -2.697820e-04 0.000000e+00  -7.082742e-03 -2.760347e-04 0.000000e+00  -6.809256e-03 -2.816044e-04 0.000000e+00  -6.530621e-03 -2.864662e-04 0.000000e+00  -6.247580e-03 -2.905937e-04 0.000000e+00  -5.960903e-03 -2.939611e-04 0.000000e+00  -5.671310e-03 -2.965438e-04 0.000000e+00  -5.379543e-03 -2.983169e-04 0.000000e+00  -5.086445e-03 -2.992556e-04 0.000000e+00  -4.792880e-03 -2.993360e-04 0.000000e+00  -4.499660e-03 -2.985353e-04 0.000000e+00  -4.207620e-03 -2.968314e-04 0.000000e+00  -3.917687e-03 -2.942036e-04 0.000000e+00  -3.630806e-03 -2.906337e-04 0.000000e+00  -3.347867e-03 -2.861045e-04 0.000000e+00  -3.069771e-03 -2.806007e-04 0.000000e+00  -2.797508e-03 -2.741108e-04 0.000000e+00  -2.532069e-03 -2.666272e-04 0.000000e+00  -2.274385e-03 -2.581437e-04 0.000000e+00  -2.025389e-03 -2.486577e-04 0.000000e+00  -1.786078e-03 -2.381732e-04 0.000000e+00  -1.557435e-03 -2.267002e-04 0.000000e+00  -1.340370e-03 -2.142518e-04 0.000000e+00  -1.135778e-03 -2.008478e-04 0.000000e+00  -9.445785e-04 -1.865200e-04 0.000000e+00  -7.676468e-04 -1.713109e-04 0.000000e+00  -6.057600e-04 -1.552724e-04 0.000000e+00  -4.596381e-04 -1.384719e-04 0.000000e+00  -3.299578e-04 -1.210020e-04 0.000000e+00  -2.172809e-04 -1.029818e-04 0.000000e+00  -1.220022e-04 -8.456096e-05 0.000000e+00  -4.435105e-05 -6.593493e-05 0.000000e+00  1.564555e-05 -4.736615e-05 0.000000e+00  5.826031e-05 -2.920181e-05 0.000000e+00  8.415763e-05 -1.190144e-05 0.000000e+00  9.448869e-05 3.911307e-06 0.000000e+00  9.104849e-05 1.737911e-05 0.000000e+00  7.647982e-05 2.732974e-05 0.000000e+00  5.448341e-05 3.219060e-05 0.000000e+00  3.000581e-05 2.999124e-05 0.000000e+00  9.175462e-06 1.895146e-05 0.000000e+00  0.000000e+00 0.000000e+00 0.000000e+00  0.000000e+00 0.000000e+00 0.000000e+00  1.020504e-05 -3.643410e-05 0.000000e+00  3.204392e-05 -5.410568e-05 0.000000e+00  5.551889e-05 -5.536025e-05 0.000000e+00  7.333424e-05 -4.355565e-05 0.000000e+00  7.977236e-05 -2.199003e-05 0.000000e+00  7.040235e-05 6.571420e-06 0.000000e+00  4.192619e-05 3.995977e-05 0.000000e+00  -8.008597e-06 7.651578e-05 0.000000e+00  -8.097580e-05 1.149800e-04 0.000000e+00  -1.779242e-04 1.543952e-04 0.000000e+00  -2.993043e-04 1.940303e-04 0.000000e+00  -4.451708e-04 2.333239e-04 0.000000e+00  -6.152525e-04 2.718403e-04 0.000000e+00  -8.090760e-04 3.092506e-04 0.000000e+00  -1.025914e-03 3.452887e-04 0.000000e+00  -1.264872e-03 3.797472e-04 0.000000e+00  -1.524988e-03 4.124736e-04 0.000000e+00  -1.805214e-03 4.433507e-04 0.000000e+00  -2.104355e-03 4.722824e-04 0.000000e+00  -2.421148e-03 4.991969e-04 0.000000e+00  -2.754365e-03 5.240489e-04 0.000000e+00  -3.102751e-03 5.468080e-04 0.000000e+00  -3.464943e-03 5.674506e-04 0.000000e+00  -3.839556e-03 5.859655e-04 0.000000e+00  -4.225292e-03 6.023555e-04 0.000000e+00  -4.620856e-03 6.166304e-04 0.000000e+00  -5.024857e-03 6.288025e-04 0.000000e+00  -5.435910e-03 6.388912e-04 0.000000e+00  -5.852743e-03 6.469235e-04 0.000000e+00  -6.274104e-03 6.529297e-04 0.000000e+00  -6.698652e-03 6.569419e-04 0.000000e+00  -7.125063e-03 6.589966e-04 0.000000e+00  -7.552148e-03 6.591338e-04 0.000000e+00  -7.978740e-03 6.573950e-04 0.000000e+00  -8.403590e-03 6.538243e-04 0.000000e+00  -8.825479e-03 6.484684e-04 0.000000e+00  -9.243325e-03 6.413750e-04 0.000000e+00  -9.656073e-03 6.325921e-04 0.000000e+00  -1.006260e-02 6.221715e-04 0.000000e+00  -1.046180e-02 6.101673e-04 0.000000e+00  -1.085274e-02 5.966317e-04 0.000000e+00  -1.123447e-02 5.816178e-04 0.000000e+00  -1.160602e-02 5.651831e-04 0.000000e+00  -1.196644e-02 5.473873e-04 0.000000e+00  -1.231491e-02 5.282868e-04 0.000000e+00  -1.265065e-02 5.079383e-04 0.000000e+00  -1.297282e-02 4.864046e-04 0.000000e+00  -1.328065e-02 4.637503e-04 0.000000e+00  -1.357345e-02 4.400351e-04 0.000000e+00  -1.385061e-02 4.153188e-04 0.000000e+00  -1.411145e-02 3.896686e-04 0.000000e+00  -1.435536e-02 3.631525e-04 0.000000e+00  -1.458184e-02 3.358327e-04 0.000000e+00  -1.479040e-02 3.077712e-04 0.000000e+00  -1.498056e-02 2.790378e-04 0.000000e+00  -1.515189e-02 2.497028e-04 0.000000e+00  -1.530404e-02 2.198293e-04 0.000000e+00  -1.543670e-02 1.894804e-04 0.000000e+00  -1.554956e-02 1.587271e-04 0.000000e+00  -1.564236e-02 1.276406e-04 0.000000e+00  -1.571494e-02 9.628445e-05 0.000000e+00  -1.576714e-02 6.472186e-05 0.000000e+00  -1.579884e-02 3.302426e-05 0.000000e+00  -1.580998e-02 1.263154e-06 0.000000e+00  -1.580053e-02 -3.049814e-05 0.000000e+00  -1.577052e-02 -6.219631e-05 0.000000e+00  -1.572001e-02 -9.375995e-05 0.000000e+00  -1.564911e-02 -1.251178e-04 0.000000e+00  -1.555799e-02 -1.562069e-04 0.000000e+00  -1.544681e-02 -1.869640e-04 0.000000e+00  -1.531582e-02 -2.173186e-04 0.000000e+00  -1.516534e-02 -2.472001e-04 0.000000e+00  -1.499566e-02 -2.765465e-04 0.000000e+00  -1.480714e-02 -3.052956e-04 0.000000e+00  -1.460021e-02 -3.333784e-04 0.000000e+00  -1.437534e-02 -3.607267e-04 0.000000e+00  -1.413300e-02 -3.872801e-04 0.000000e+00  -1.387371e-02 -4.129786e-04 0.000000e+00  -1.359806e-02 -4.377560e-04 0.000000e+00  -1.330671e-02 -4.615478e-04 0.000000e+00  -1.300028e-02 -4.842960e-04 0.000000e+00  -1.267943e-02 -5.059434e-04 0.000000e+00  -1.234493e-02 -5.264274e-04 0.000000e+00  -1.199760e-02 -5.456869e-04 0.000000e+00  -1.163821e-02 -5.636667e-04 0.000000e+00  -1.126755e-02 -5.803111e-04 0.000000e+00  -1.088656e-02 -5.955608e-04 0.000000e+00  -1.049622e-02 -6.093572e-04 0.000000e+00  -1.009743e-02 -6.216461e-04 0.000000e+00  -9.691124e-03 -6.323725e-04 0.000000e+00  -9.278397e-03 -6.414791e-04 0.000000e+00  -8.860362e-03 -6.489096e-04 0.000000e+00  -8.438067e-03 -6.546105e-04 0.000000e+00  -8.012592e-03 -6.585283e-04 0.000000e+00  -7.585158e-03 -6.606096e-04 0.000000e+00  -7.157020e-03 -6.608033e-04 0.000000e+00  -6.729352e-03 -6.590608e-04 0.000000e+00  -6.303361e-03 -6.553351e-04 