<?xml version="1.0"?>
<VTKFile type="UnstructuredGrid"  version="0.1"  >
<UnstructuredGrid>
<Piece  NumberOfPoints="16641" NumberOfCells="32768">
<Points>
<DataArray  type="Float32"  NumberOfComponents="3"  format="ascii">0 0 0  0.0078125 0 0  0.015625 0 0  0.0234375 0 0  0.03125 0 0  0.0390625 0 0  0.046875 0 0  0.0546875 0 0  0.0625 0 0  0.0703125 0 0  0.078125 0 0  0.0859375 0 0  0.09375 0 0  0.101562 0 0  0.109375 0 0  0.117188 0 0  0.125 0 0  0.132812 0 0  0.140625 0 0  0.148438 0 0  0.15625 0 0  0.164062 0 0  0.171875 0 0  0.179688 0 0  0.1875 0 0  0.195312 0 0  0.203125 0 0  0.210938 0 0  0.21875 0 0  0.226562 0 0  0.234375 0 0  0.242188 0 0  0.25 0 0  0.257812 0 0  0.265625 0 0  0.273438 0 0  0.28125 0 0  0.289062 0 0  0.296875 0 0  0.304688 0 0  0.3125 0 0  0.320312 0 0  0.328125 0 0  0.335938 0 0  0.34375 0 0  0.351562 0 0  0.359375 0 0  0.367188 0 0  0.375 0 0  0.382812 0 0  0.390625 0 0  0.398438 0 0  0.40625 0 0  0.414062 0 0  0.421875 0 0  0.429688 0 0  0.4375 0 0  0.445312 0 0  0.453125 0 0  0.460938 0 0  0.46875 0 0  0.476562 0 0  0.484375 0 0  0.492188 0 0  0.5 0 0  0.507812 0 0  0.515625 0 0  0.523438 0 0  0.53125 0 0  0.539062 0 0  0.546875 0 0  0.554688 0 0  0.5625 0 0  0.570312 0 0  0.578125 0 0  0.585938 0 0  0.59375 0 0  0.601562 0 0  0.609375 0 0  0.617188 0 0  0.625 0 0  0.632812 0 0  0.640625 0 0  0.648438 0 0  0.65625 0 0  0.664062 0 0  0.671875 0 0  0.679688 0 0  0.6875 0 0  0.695312 0 0  0.703125 0 0  0.710938 0 0  0.71875 0 0  0.726562 0 0  0.734375 0 0  0.742188 0 0  0.75 0 0  0.757812 0 0  0.765625 0 0  0.773438 0 0  0.78125 0 0  0.789062 0 0  0.796875 0 0  0.804688 0 0  0.8125 0 0  0.820312 0 0  0.828125 0 0  0.835938 0 0  0.84375 0 0  0.851562 0 0  0.859375 0 0  0.867188 0 0  0.875 0 0  0.882812 0 0  0.890625 0 0  0.898438 0 0  0.90625 0 0  0.914062 0 0  0.921875 0 0  0.929688 0 0  0.9375 0 0  0.945312 0 0  0.953125 0 0  0.960938 0 0  0.96875 0 0  0.976562 0 0  0.984375 0 0  0.992188 0 0  1 0 0  0 0.0078125 0  0.0078125 0.0078125 0  0.015625 0.0078125 0  0.0234375 0.0078125 0  0.03125 0.0078125 0  0.0390625 0.0078125 0  0.046875 0.0078125 0  0.0546875 0.0078125 0  0.0625 0.0078125 0  0.0703125 0.0078125 0  0.078125 0.0078125 0  0.0859375 0.0078125 0  0.09375 0.0078125 0  0.101562 0.0078125 0  0.109375 0.0078125 0  0.117188 0.0078125 0  0.125 0.0078125 0  0.132812 0.0078125 0  0.140625 0.0078125 0  0.148438 0.0078125 0  0.15625 0.0078125 0  0.164062 0.0078125 0  0.171875 0.0078125 0  0.179688 0.0078125 0  0.1875 0.0078125 0  0.195312 0.0078125 0  0.203125 0.0078125 0  0.210938 0.0078125 0  0.21875 0.0078125 0  0.226562 0.0078125 0  0.234375 0.0078125 0  0.242188 0.0078125 0  0.25 0.0078125 0  0.257812 0.0078125 0  0.265625 0.0078125 0  0.273438 0.0078125 0  0.28125 0.0078125 0  0.289062 0.0078125 0  0.296875 0.0078125 0  0.304688 0.0078125 0  0.3125 0.0078125 0  0.320312 0.0078125 0  0.328125 0.0078125 0  0.335938 0.0078125 0  0.34375 0.0078125 0  0.351562 0.0078125 0  0.359375 0.0078125 0  0.367188 0.0078125 0  0.375 0.0078125 0  0.382812 0.0078125 0  0.390625 0.0078125 0  0.398438 0.0078125 0  0.40625 0.0078125 0  0.414062 0.0078125 0  0.421875 0.0078125 0  0.429688 0.0078125 0  0.4375 0.0078125 0  0.445312 0.0078125 0  0.453125 0.0078125 0  0.460938 0.0078125 0  0.46875 0.0078125 0  0.476562 0.0078125 0  0.484375 0.0078125 0  0.492188 0.0078125 0  0.5 0.0078125 0  0.507812 0.0078125 0  0.515625 0.0078125 0  0.523438 0.0078125 0  0.53125 0.0078125 0  0.539062 0.0078125 0  0.546875 0.0078125 0  0.554688 0.0078125 0  0.5625 0.0078125 0  0.570312 0.0078125 0  0.578125 0.0078125 0  0.585938 0.0078125 0  0.59375 0.0078125 0  0.601562 0.0078125 0  0.609375 0.0078125 0  0.617188 0.0078125 0  0.625 0.0078125 0  0.632812 0.0078125 0  0.640625 0.0078125 0  0.648438 0.0078125 0  0.65625 0.0078125 0  0.664062 0.0078125 0  0.671875 0.0078125 0  0.679688 0.0078125 0  0.6875 0.0078125 0  0.695312 0.0078125 0  0.703125 0.0078125 0  0.710938 0.0078125 0  0.71875 0.0078125 0  0.726562 0.0078125 0  0.734375 0.0078125 0  0.742188 0.0078125 0  0.75 0.0078125 0  0.757812 0.0078125 0  0.765625 0.0078125 0  0.773438 0.0078125 0  0.78125 0.0078125 0  0.789062 0.0078125 0  0.796875 0.0078125 0  0.804688 0.0078125 0  0.8125 0.0078125 0  0.820312 0.0078125 0  0.828125 0.0078125 0  0.835938 0.0078125 0  0.84375 0.0078125 0  0.851562 0.0078125 0  0.859375 0.0078125 0  0.867188 0.0078125 0  0.875 0.0078125 0  0.882812 0.0078125 0  0.890625 0.0078125 0  0.898438 0.0078125 0  0.90625 0.0078125 0  0.914062 0.0078125 0  0.921875 0.0078125 0  0.929688 0.0078125 0  0.9375 0.0078125 0  0.945312 0.0078125 0  0.953125 0.0078125 0  0.960938 0.0078125 0  0.96875 0.0078125 0  0.976562 0.0078125 0  0.984375 0.0078125 0  0.992188 0.0078125 0  1 0.0078125 0  0 0.015625 0  0.0078125 0.015625 0  0.015625 0.015625 0  0.0234375 0.015625 0  0.03125 0.015625 0  0.0390625 0.015625 0  0.046875 0.015625 0  0.0546875 0.015625 0  0.0625 0.015625 0  0.0703125 0.015625 0  0.078125 0.015625 0  0.0859375 0.015625 0  0.09375 0.015625 0  0.101562 0.015625 0  0.109375 0.015625 0  0.117188 0.015625 0  0.125 0.015625 0  0.132812 0.015625 0  0.140625 0.015625 0  0.148438 0.015625 0  0.15625 0.015625 0  0.164062 0.015625 0  0.171875 0.015625 0  0.179688 0.015625 0  0.1875 0.015625 0  0.195312 0.015625 0  0.203125 0.015625 0  0.210938 0.015625 0  0.21875 0.015625 0  0.226562 0.015625 0  0.234375 0.015625 0  0.242188 0.015625 0  0.25 0.015625 0  0.257812 0.015625 0  0.265625 0.015625 0  0.273438 0.015625 0  0.28125 0.015625 0  0.289062 0.015625 0  0.296875 0.015625 0  0.304688 0.015625 0  0.3125 0.015625 0  0.320312 0.015625 0  0.328125 0.015625 0  0.335938 0.015625 0  0.34375 0.015625 0  0.351562 0.015625 0  0.359375 0.015625 0  0.367188 0.015625 0  0.375 0.015625 0  0.382812 0.015625 0  0.390625 0.015625 0  0.398438 0.015625 0  0.40625 0.015625 0  0.414062 0.015625 0  0.421875 0.015625 0  0.429688 0.015625 0  0.4375 0.015625 0  0.445312 0.015625 0  0.453125 0.015625 0  0.460938 0.015625 0  0.46875 0.015625 0  0.476562 0.015625 0  0.484375 0.015625 0  0.492188 0.015625 0  0.5 0.015625 0  0.507812 0.015625 0  0.515625 0.015625 0  0.523438 0.015625 0  0.53125 0.015625 0  0.539062 0.015625 0  0.546875 0.015625 0  0.554688 0.015625 0  0.5625 0.015625 0  0.570312 0.015625 0  0.578125 0.015625 0  0.585938 0.015625 0  0.59375 0.015625 0  0.601562 0.015625 0  0.609375 0.015625 0  0.617188 0.015625 0  0.625 0.015625 0  0.632812 0.015625 0  0.640625 0.015625 0  0.648438 0.015625 0  0.65625 0.015625 0  0.664062 0.015625 0  0.671875 0.015625 0  0.679688 0.015625 0  0.6875 0.015625 0  0.695312 0.015625 0  0.703125 0.015625 0  0.710938 0.015625 0  0.71875 0.015625 0  0.726562 0.015625 0  0.734375 0.015625 0  0.742188 0.015625 0  0.75 0.015625 0  0.757812 0.015625 0  0.765625 0.015625 0  0.773438 0.015625 0  0.78125 0.015625 0  0.789062 0.015625 0  0.796875 0.015625 0  0.804688 0.015625 0  0.8125 0.015625 0  0.820312 0.015625 0  0.828125 0.015625 0  0.835938 0.015625 0  0.84375 0.015625 0  0.851562 0.015625 0  0.859375 0.015625 0  0.867188 0.015625 0  0.875 0.015625 0  0.882812 0.015625 0  0.890625 0.015625 0  0.898438 0.015625 0  0.90625 0.015625 0  0.914062 0.015625 0  0.921875 0.015625 0  0.929688 0.015625 0  0.9375 0.015625 0  0.945312 0.015625 0  0.953125 0.015625 0  0.960938 0.015625 0  0.96875 0.015625 0  0.976562 0.015625 0  0.984375 0.015625 0  0.992188 0.015625 0  1 0.015625 0  0 0.0234375 0  0.0078125 0.0234375 0  0.015625 0.0234375 0  0.0234375 0.0234375 0  0.03125 0.0234375 0  0.0390625 0.0234375 0  0.046875 0.0234375 0  0.0546875 0.0234375 0  0.0625 0.0234375 0  0.0703125 0.0234375 0  0.078125 0.0234375 0  0.0859375 0.0234375 0  0.09375 0.0234375 0  0.101562 0.0234375 0  0.109375 0.0234375 0  0.117188 0.0234375 0  0.125 0.0234375 0  0.132812 0.0234375 0  0.140625 0.0234375 0  0.148438 0.0234375 0  0.15625 0.0234375 0  0.164062 0.0234375 0  0.171875 0.0234375 0  0.179688 0.0234375 0  0.1875 0.0234375 0  0.195312 0.0234375 0  0.203125 0.0234375 0  0.210938 0.0234375 0  0.21875 0.0234375 0  0.226562 0.0234375 0  0.234375 0.0234375 0  0.242188 0.0234375 0  0.25 0.0234375 0  0.257812 0.0234375 0  0.265625 0.0234375 0  0.273438 0.0234375 0  0.28125 0.0234375 0  0.289062 0.0234375 0  0.296875 0.0234375 0  0.304688 0.0234375 0  0.3125 0.0234375 0  0.320312 0.0234375 0  0.328125 0.0234375 0  0.335938 0.0234375 0  0.34375 0.0234375 0  0.351562 0.0234375 0  0.359375 0.0234375 0  0.367188 0.0234375 0  0.375 0.0234375 0  0.382812 0.0234375 0  0.390625 0.0234375 0  0.398438 0.0234375 0  0.40625 0.0234375 0  0.414062 0.0234375 0  0.421875 0.0234375 0  0.429688 0.0234375 0  0.4375 0.0234375 0  0.445312 0.0234375 0  0.453125 0.0234375 0  0.460938 0.0234375 0  0.46875 0.0234375 0  0.476562 0.0234375 0  0.484375 0.0234375 0  0.492188 0.0234375 0  0.5 0.0234375 0  0.507812 0.0234375 0  0.515625 0.0234375 0  0.523438 0.0234375 0  0.53125 0.0234375 0  0.539062 0.0234375 0  0.546875 0.0234375 0  0.554688 0.0234375 0  0.5625 0.0234375 0  0.570312 0.0234375 0  0.578125 0.0234375 0  0.585938 0.0234375 0  0.59375 0.0234375 0  0.601562 0.0234375 0  0.609375 0.0234375 0  0.617188 0.0234375 0  0.625 0.0234375 0  0.632812 0.0234375 0  0.640625 0.0234375 0  0.648438 0.0234375 0  0.65625 0.0234375 0  0.664062 0.0234375 0  0.671875 0.0234375 0  0.679688 0.0234375 0  0.6875 0.0234375 0  0.695312 0.0234375 0  0.703125 0.0234375 0  0.710938 0.0234375 0  0.71875 0.0234375 0  0.726562 0.0234375 0  0.734375 0.0234375 0  0.742188 0.0234375 0  0.75 0.0234375 0  0.757812 0.0234375 0  0.765625 0.0234375 0  0.773438 0.0234375 0  0.78125 0.0234375 0  0.789062 0.0234375 0  0.796875 0.0234375 0  0.804688 0.0234375 0  0.8125 0.0234375 0  0.820312 0.0234375 0  0.828125 0.0234375 0  0.835938 0.0234375 0  0.84375 0.0234375 0  0.851562 0.0234375 0  0.859375 0.0234375 0  0.867188 0.0234375 0  0.875 0.0234375 0  0.882812 0.0234375 0  0.890625 0.0234375 0  0.898438 0.0234375 0  0.90625 0.0234375 0  0.914062 0.0234375 0  0.921875 0.0234375 0  0.929688 0.0234375 0  0.9375 0.0234375 0  0.945312 0.0234
[...]
<PointData  Vectors="u"> 
<DataArray  type="Float32"  Name="u"  NumberOfComponents="3" format="ascii">0.000000e+00 0.000000e+00 0.000000e+00  0.000000e+00 0.000000e+00 0.000000e+00  0.000000e+00 0.000000e+00 0.000000e+00  0.000000e+00 0.000000e+00 0.000000e+00  0.000000e+00 0.000000e+00 0.000000e+00  0.000000e+00 0.000000e+00 0.000000e+00  0.000000e+00 0.000000e+00 0.000000e+00  0.000000e+00 0.000000e+00 0.000000e+00  0.000000e+00 0.000000e+00 0.000000e+00  0.000000e+00 0.000000e+00 0.000000e+00  0.000000e+00 0.000000e+00 0.000000e+00  0.000000e+00 0.000000e+00 0.000000e+00  0.000000e+00 0.000000e+00 0.000000e+00  0.000000e+00 0.000000e+00 0.000000e+00  0.000000e+00 0.000000e+00 0.000000e+00  0.000000e+00 0.000000e+00 0.000000e+00  0.000000e+00 0.000000e+00 0.000000e+00  0.000000e+00 0.000000e+00 0.000000e+00  0.000000e+00 0.000000e+00 0.000000e+00  0.000000e+00 0.000000e+00 0.000000e+00  0.000000e+00 0.000000e+00 0.000000e+00  0.000000e+00 0.000000e+00 0.000000e+00  0.000000e+00 0.000000e+00 0.000000e+00  0.000000e+00 0.000000e+00 0.000000e+00  0.000000e+00 0.000000e+00 0.000000e+00  0.000000e+00 0.000000e+00 0.000000e+00  0.000000e+00 0.000000e+00 0.000000e+00  0.000000e+00 0.000000e+00 0.000000e+00  0.000000e+00 0.000000e+00 0.000000e+00  0.000000e+00 0.000000e+00 0.000000e+00  0.000000e+00 0.000000e+00 0.000000e+00  0.000000e+00 0.000000e+00 0.000000e+00  0.000000e+00 0.000000e+00 0.000000e+00  0.000000e+00 0.000000e+00 0.000000e+00  0.000000e+00 0.000000e+00 0.000000e+00  0.000000e+00 0.000000e+00 0.000000e+00  0.000000e+00 0.000000e+00 0.000000e+00  0.000000e+00 0.000000e+00 0.000000e+00  0.000000e+00 0.000000e+00 0.000000e+00  0.000000e+00 0.000000e+00 0.000000e+00  0.000000e+00 0.000000e+00 0.000000e+00  0.000000e+00 0.000000e+00 0.000000e+00  0.000000e+00 0.000000e+00 0.000000e+00  0.000000e+00 0.000000e+00 0.000000e+00  0.000000e+00 0.000000e+00 0.000000e+00  0.000000e+00 0.000000e+00 0.000000e+00  0.000000e+00 0.000000e+00 0.000000e+00  0.000000e+00 0.000000e+00 0.000000e+00  0.000000e+00 0.000000e+00 0.000000e+00  0.000000e+00 0.000000e+00 0.000000e+00  0.000000e+00 0.000000e+00 0.000000e+00  0.000000e+00 0.000000e+00 0.000000e+00  0.000000e+00 0.000000e+00 0.000000e+00  0.000000e+00 0.000000e+00 0.000000e+00  0.000000e+00 0.000000e+00 0.000000e+00  0.000000e+00 0.000000e+00 0.000000e+00  0.000000e+00 0.000000e+00 0.000000e+00  0.000000e+00 0.000000e+00 0.000000e+00  0.000000e+00 0.000000e+00 0.000000e+00  0.000000e+00 0.000000e+00 0.000000e+00  0.000000e+00 0.000000e+00 0.000000e+00  0.000000e+00 0.000000e+00 0.000000e+00  0.000000e+00 0.000000e+00 0.000000e+00  0.000000e+00 0.000000e+00 0.000000e+00  0.000000e+00 0.000000e+00 0.000000e+00  0.000000e+00 0.000000e+00 0.000000e+00  0.000000e+00 0.000000e+00 0.000000e+00  0.000000e+00 0.000000e+00 0.000000e+00  0.000000e+00 0.000000e+00 0.000000e+00  0.000000e+00 0.000000e+00 0.000000e+00  0.000000e+00 0.000000e+00 0.000000e+00  0.000000e+00 0.000000e+00 0.000000e+00  0.000000e+00 0.000000e+00 0.000000e+00  0.000000e+00 0.000000e+00 0.000000e+00  0.000000e+00 0.000000e+00 0.000000e+00  0.000000e+00 0.000000e+00 0.000000e+00  0.000000e+00 0.000000e+00 0.000000e+00  0.000000e+00 0.000000e+00 0.000000e+00  0.000000e+00 0.000000e+00 0.000000e+00  0.000000e+00 0.000000e+00 0.000000e+00  0.000000e+00 0.000000e+00 0.000000e+00  0.000000e+00 0.000000e+00 0.000000e+00  0.000000e+00 0.000000e+00 0.000000e+00  0.000000e+00 0.000000e+00 0.000000e+00  0.000000e+00 0.000000e+00 0.000000e+00  0.000000e+00 0.000000e+00 0.000000e+00  0.000000e+00 0.000000e+00 0.000000e+00  0.000000e+00 0.000000e+00 0.000000e+00  0.000000e+00 0.000000e+00 0.000000e+00  0.000000e+00 0.000000e+00 0.000000e+00  0.000000e+00 0.000000e+00 0.000000e+00  0.000000e+00 0.000000e+00 0.000000e+00  0.000000e+00 0.000000e+00 0.000000e+00  0.000000e+00 0.000000e+00 0.000000e+00  0.000000e+00 0.000000e+00 0.000000e+00  0.000000e+00 0.000000e+00 0.000000e+00  0.000000e+00 0.000000e+00 0.000000e+00  0.000000e+00 0.000000e+00 0.000000e+00  0.000000e+00 0.000000e+00 0.000000e+00  0.000000e+00 0.000000e+00 0.000000e+00  0.000000e+00 0.000000e+00 0.000000e+00  0.000000e+00 0.000000e+00 0.000000e+00  0.000000e+00 0.000000e+00 0.000000e+00  0.000000e+00 0.000000e+00 0.000000e+00  0.000000e+00 0.000000e+00 0.000000e+00  0.000000e+00 0.000000e+00 0.000000e+00  0.000000e+00 0.000000e+00 0.000000e+00  0.000000e+00 0.000000e+00 0.000000e+00  0.000000e+00 0.000000e+00 0.000000e+00  0.000000e+00 0.000000e+00 0.000000e+00  0.000000e+00 0.000000e+00 0.000000e+00  0.000000e+00 0.000000e+00 0.000000e+00  0.000000e+00 0.000000e+00 0.000000e+00  0.000000e+00 0.000000e+00 0.000000e+00  0.000000e+00 0.000000e+00 0.000000e+00  0.000000e+00 0.000000e+00 0.000000e+00  0.000000e+00 0.000000e+00 0.000000e+00  0.000000e+00 0.000000e+00 0.000000e+00  0.000000e+00 0.000000e+00 0.000000e+00  0.000000e+00 0.000000e+00 0.000000e+00  0.000000e+00 0.000000e+00 0.000000e+00  0.000000e+00 0.000000e+00 0.000000e+00  0.000000e+00 0.000000e+00 0.000000e+00  0.000000e+00 0.000000e+00 0.000000e+00  0.000000e+00 0.000000e+00 0.000000e+00  0.000000e+00 0.000000e+00 0.000000e+00  0.000000e+00 0.000000e+00 0.000000e+00  0.000000e+00 0.000000e+00 0.000000e+00  0.000000e+00 0.000000e+00 0.000000e+00  0.000000e+00 0.000000e+00 0.000000e+00  5.378380e-06 -5.378310e-06 0.000000e+00  1.926897e-05 -9.438784e-06 0.000000e+00  3.734957e-05 -1.045223e-05 0.000000e+00  5.489222e-05 -9.252399e-06 0.000000e+00  6.857187e-05 -6.551637e-06 0.000000e+00  7.605550e-05 -2.866539e-06 0.000000e+00  7.580084e-05 1.445057e-06 0.000000e+00  6.682328e-05 6.136869e-06 0.000000e+00  4.853493e-05 1.103560e-05 0.000000e+00  2.063440e-05 1.601723e-05 0.000000e+00  -1.697043e-05 2.099156e-05 0.000000e+00  -6.421694e-05 2.589210e-05 0.000000e+00  -1.209229e-04 3.066905e-05 0.000000e+00  -1.868348e-04 3.528623e-05 0.000000e+00  -2.616148e-04 3.971514e-05 0.000000e+00  -3.448705e-04 4.393435e-05 0.000000e+00  -4.361925e-04 4.792886e-05 0.000000e+00  -5.351474e-04 5.168774e-05 0.000000e+00  -6.412568e-04 5.520231e-05 0.000000e+00  -7.540238e-04 5.846656e-05 0.000000e+00  -8.729697e-04 6.147745e-05 0.000000e+00  -9.976128e-04 6.423347e-05 0.000000e+00  -1.127437e-03 6.673369e-05 0.000000e+00  -1.261923e-03 6.897841e-05 0.000000e+00  -1.400586e-03 7.096939e-05 0.000000e+00  -1.542949e-03 7.270900e-05 0.000000e+00  -1.688499e-03 7.419971e-05 0.000000e+00  -1.836730e-03 7.544457e-05 0.000000e+00  -1.987180e-03 7.644739e-05 0.000000e+00  -2.139394e-03 7.721215e-05 0.000000e+00  -2.292886e-03 7.774290e-05 0.000000e+00  -2.447179e-03 7.804399e-05 0.000000e+00  -2.601843e-03 7.812008e-05 0.000000e+00  -2.756457e-03 7.797588e-05 0.000000e+00  -2.910570e-03 7.761623e-05 0.000000e+00  -3.063741e-03 7.704620e-05 0.000000e+00  -3.215579e-03 7.627087e-05 0.000000e+00  -3.365702e-03 7.529530e-05 0.000000e+00  -3.513698e-03 7.412491e-05 0.000000e+00  -3.659170e-03 7.276532e-05 0.000000e+00  -3.801766e-03 7.122197e-05 0.000000e+00  -3.941147e-03 6.950033e-05 0.000000e+00  -4.076946e-03 6.760648e-05 0.000000e+00  -4.208813e-03 6.554673e-05 0.000000e+00  -4.336442e-03 6.332709e-05 0.000000e+00  -4.459537e-03 6.095370e-05 0.000000e+00  -4.577787e-03 5.843351e-05 0.000000e+00  -4.690891e-03 5.577377e-05 0.000000e+00  -4.798597e-03 5.298129e-05 0.000000e+00  -4.900660e-03 5.006301e-05 0.000000e+00  -4.996827e-03 4.702687e-05 0.000000e+00  -5.086860e-03 4.388101e-05 0.000000e+00  -5.170562e-03 4.063300e-05 0.000000e+00  -5.247748e-03 3.729049e-05 0.000000e+00  -5.318229e-03 3.386215e-05 0.000000e+00  -5.381835e-03 3.035679e-05 0.000000e+00  -5.438432e-03 2.678243e-05 0.000000e+00  -5.487895e-03 2.314715e-05 0.000000e+00  -5.530108e-03 1.946000e-05 0.000000e+00  -5.564971e-03 1.573013e-05 0.000000e+00  -5.592413e-03 1.196576e-05 0.000000e+00  -5.612377e-03 8.175111e-06 0.000000e+00  -5.624816e-03 4.367403e-06 0.000000e+00  -5.629704e-03 5.518678e-07 0.000000e+00  -5.627037e-03 -3.263248e-06 0.000000e+00  -5.616821e-03 -7.069722e-06 0.000000e+00  -5.599083e-03 -1.085838e-05 0.000000e+00  -5.573870e-03 -1.462010e-05 0.000000e+00  -5.541240e-03 -1.834680e-05 0.000000e+00  -5.501268e-03 -2.203046e-05 0.000000e+00  -5.454049e-03 -2.566224e-05 0.000000e+00  -5.399702e-03 -2.923345e-05 0.000000e+00  -5.338348e-03 -3.273647e-05 0.000000e+00  -5.270122e-03 -3.616387e-05 0.000000e+00  -5.195187e-03 -3.950755e-05 0.000000e+00  -5.113728e-03 -4.275968e-05 0.000000e+00  -5.025924e-03 -4.591353e-05 0.000000e+00  -4.931962e-03 -4.896261e-05 0.000000e+00  -4.832069e-03 -5.189990e-05 0.000000e+00  -4.726485e-03 -5.471871e-05 0.000000e+00  -4.615439e-03 -5.741330e-05 0.000000e+00  -4.499168e-03 -5.997809e-05 0.000000e+00  -4.377947e-03 -6.240700e-05 0.000000e+00  -4.252070e-03 -6.469405e-05 0.000000e+00  -4.121806e-03 -6.683393e-05 0.000000e+00  -3.987437e-03 -6.882116e-05 0.000000e+00  -3.849287e-03 -7.064962e-05 0.000000e+00  -3.707696e-03 -7.231300e-05 0.000000e+00  -3.562980e-03 -7.380518e-05 0.000000e+00  -3.415465e-03 -7.511961e-05 0.000000e+00  -3.265531e-03 -7.624900e-05 0.000000e+00  -3.113571e-03 -7.718576e-05 0.000000e+00  -2.959956e-03 -7.792225e-05 0.000000e+00  -2.805069e-03 -7.845043e-05 0.000000e+00  -2.649353e-03 -7.876190e-05 0.000000e+00  -2.493263e-03 -7.884829e-05 0.000000e+00  -2.337233e-03 -7.870136e-05 0.000000e+00  -2.181713e-03 -7.831296e-05 0.000000e+00  -2.027207e-03 -7.767544e-05 0.000000e+00  -1.874233e-03 -7.678180e-05 0.000000e+00  -1.723283e-03 -7.562560e-05 0.000000e+00  -1.574862e-03 -7.420115e-05 0.000000e+00  -1.429520e-03 -7.250413e-05 0.000000e+00  -1.287815e-03 -7.053148e-05 0.000000e+00  -1.150274e-03 -6.828097e-05 0.000000e+00  -1.017426e-03 -6.575156e-05 0.000000e+00  -8.898341e-04 -6.294433e-05 0.000000e+00  -7.680567e-04 -5.986207e-05 0.000000e+00  -6.526117e-04 -5.650858e-05 0.000000e+00  -5.440096e-04 -5.288948e-05 0.000000e+00  -4.427746e-04 -4.901356e-05 0.000000e+00  -3.494068e-04 -4.489240e-05 0.000000e+00  -2.643551e-04 -4.053983e-05 0.000000e+00  -1.880389e-04 -3.597367e-05 0.000000e+00  -1.208556e-04 -3.121809e-05 0.000000e+00  -6.314264e-05 -2.630427e-05 0.000000e+00  -1.515059e-05 -2.127124e-05 0.000000e+00  2.295692e-05 -1.617033e-05 0.000000e+00  5.112560e-05 -1.107128e-05 0.000000e+00  6.946589e-05 -6.067820e-06 0.000000e+00  7.830864e-05 -1.286748e-06 0.000000e+00  7.827208e-05 3.094687e-06 0.000000e+00  7.037796e-05 6.822869e-06 0.000000e+00  5.621731e-05 9.531026e-06 0.000000e+00  3.816426e-05 1.068455e-05 0.000000e+00  1.970562e-05 9.552364e-06 0.000000e+00  5.365848e-06 5.366322e-06 0.000000e+00  0.000000e+00 0.000000e+00 0.000000e+00  0.000000e+00 0.000000e+00 0.000000e+00  9.445034e-06 -1.927269e-05 0.000000e+00  3.058949e-05 -3.057290e-05 0.000000e+00  5.557724e-05 -3.283909e-05 0.000000e+00  7.801271e-05 -2.789774e-05 0.000000e+00  9.289452e-05 -1.776132e-05 0.000000e+00  9.644487e-05 -4.047831e-06 0.000000e+00  8.598400e-05 1.204528e-05 0.000000e+00  5.968616e-05 2.964496e-05 0.000000e+00  1.638807e-05 4.811279e-05 0.000000e+00  -4.456820e-05 6.697807e-05 0.000000e+00  -1.234549e-04 8.589025e-05 0.000000e+00  -2.202489e-04 1.045858e-04 0.000000e+00  -3.346919e-04 1.228641e-04 0.000000e+00  -4.663819e-04 1.405767e-04 0.000000e+00  -6.147436e-04 1.576053e-04 0.000000e+00  -7.790885e-04 1.738597e-04 0.000000e+00  -9.586872e-04 1.892753e-04 0.000000e+00  -1.152756e-03 2.038039e-04 0.000000e+00  -1.360417e-03 2.174066e-04 0.000000e+00  -1.580748e-03 2.300559e-04 0.000000e+00  -1.812861e-03 2.417359e-04 0.000000e+00  -2.055852e-03 2.524373e-04 0.000000e+00  -2.308749e-03 2.621537e-04 0.000000e+00  -2.570569e-03 2.708834e-04 0.000000e+00  -2.840393e-03 2.786313e-04 0.000000e+00  -3.117309e-03 2.854045e-04 0.000000e+00  -3.400342e-03 2.912108e-04 0.000000e+00  -3.688520e-03 2.960609e-04 0.000000e+00  -3.980957e-03 2.999682e-04 0.000000e+00  -4.276779e-03 3.029472e-04 0.000000e+00  -4.575050e-03 3.050127e-04 0.000000e+00  -4.874848e-03 3.061810e-04 0.000000e+00  -5.175345e-03 3.064696e-04 0.000000e+00  -5.475727e-03 3.058963e-04 0.000000e+00  -5.775122e-03 3.044796e-04 0.000000e+00  -6.072676e-03 3.022389e-04 0.000000e+00  -6.367630e-03 2.991938e-04 0.000000e+00  -6.659243e-03 2.953641e-04 0.000000e+00  -6.946720e-03 2.907706e-04 0.000000e+00  -7.229286e-03 2.854353e-04 0.000000e+00  -7.506262e-03 2.793796e-04 0.000000e+00  -7.776987e-03 2.726248e-04 0.000000e+00  -8.040752e-03 2.651948e-04 0.000000e+00  -8.296875e-03 2.571144e-04 0.000000e+00  -8.544763e-03 2.484072e-04 0.000000e+00  -8.783845e-03 2.390973e-04 0.000000e+00  -9.013513e-03 2.292120e-04 0.000000e+00  -9.233187e-03 2.187798e-04 0.000000e+00  -9.442375e-03 2.078274e-04 0.000000e+00  -9.640606e-03 1.963821e-04 0.000000e+00  -9.827386e-03 1.844749e-04 0.000000e+00  -1.000226e-02 1.721378e-04 0.000000e+00  -1.016483e-02 1.594004e-04 0.000000e+00  -1.031476e-02 1.462926e-04 0.000000e+00  -1.045166e-02 1.328484e-04 0.000000e+00  -1.057522e-02 1.191023e-04 0.000000e+00  -1.068517e-02 1.050856e-04 0.000000e+00  -1.078127e-02 9.082988e-05 0.000000e+00  -1.086329e-02 7.637071e-05 0.000000e+00  -1.093105e-02 6.174381e-05 0.000000e+00  -1.098439e-02 4.698138e-05 0.000000e+00  -1.102322e-02 3.211563e-05 0.000000e+00  -1.104743e-02 1.718264e-05 0.000000e+00  -1.105699e-02 2.218559e-06 0.000000e+00  -1.105187e-02 -1.274435e-05 0.000000e+00  -1.103209e-02 -2.767388e-05 0.000000e+00  -1.099771e-02 -4.253412e-05 0.000000e+00  -1.094881e-02 -5.728938e-05 0.000000e+00  -1.088551e-02 -7.190802e-05 0.000000e+00  -1.080794e-02 -8.635868e-05 0.000000e+00  -1.071629e-02 -1.006067e-04 0.000000e+00  -1.061080e-02 -1.146181e-04 0.000000e+00  -1.049169e-02 -1.283631e-04 0.000000e+00  -1.035923e-02 -1.418125e-04 0.000000e+00  -1.021373e-02 -1.549346e-04 0.000000e+00  -1.005555e-02 -1.676985e-04 0.000000e+00  -9.885037e-03 -1.800779e-04 0.000000e+00  -9.702550e-03 -1.920471e-04 0.000000e+00  -9.508529e-03 -2.035784e-04 0.000000e+00  -9.303443e-03 -2.146453e-04 0.000000e+00  -9.087732e-03 -2.252251e-04 0.000000e+00  -8.861856e-03 -2.352956e-04 0.000000e+00  -8.626355e-03 -2.448323e-04 0.000000e+00  -8.381796e-03 -2.538117e-04 0.000000e+00  -8.128706e-03 -2.622125e-04 0.000000e+00  -7.867632e-03 -2.700127e-04 0.000000e+00  -7.599208e-03 -2.771882e-04 0.000000e+00  -7.324096e-03 -2.837140e-04 0.000000e+00  -7.042912e-03 -2.895660e-04 0.000000e+00  -6.756295e-03 -2.947185e-04 0.000000e+00  -6.464982e-03 -2.991432e-04 0.000000e+00  -6.169741e-03 -3.028107e-04 0.000000e+00  -5.871293e-03 -3.056916e-04 0.000000e+00  -5.570384e-03 -3.077552e-04 0.000000e+00  -5.267871e-03 -3.089695e-04 0.000000e+00  -4.964639e-03 -3.093027e-04 0.000000e+00  -4.661525e-03 -3.087239e-04 0.000000e+00  -4.359398e-03 -3.072025e-04 0.000000e+00  -4.059227e-03 -3.047100e-04 0.000000e+00  -3.762011e-03 -3.012206e-04 0.000000e+00  -3.468690e-03 -2.967108e-04 0.000000e+00  -3.180230e-03 -2.911599e-04 0.000000e+00  -2.897683e-03 -2.845530e-04 0.000000e+00  -2.622113e-03 -2.768799e-04 0.000000e+00  -2.354517e-03 -2.681340e-04 0.000000e+00  -2.095896e-03 -2.583133e-04 0.000000e+00  -1.847316e-03 -2.474245e-04 0.000000e+00  -1.609826e-03 -2.354812e-04 0.000000e+00  -1.384395e-03 -2.225011e-04 0.000000e+00  -1.171973e-03 -2.085097e-04 0.000000e+00  -9.735298e-04 -1.935452e-04 0.000000e+00  -7.899852e-04 -1.776573e-04 0.000000e+00  -6.221514e-04 -1.609051e-04 0.000000e+00  -4.707769e-04 -1.433641e-04 0.000000e+00  -3.365599e-04 -1.251349e-04 0.000000e+00  -2.200754e-04 -1.063460e-04 0.000000e+00  -1.217209e-04 -8.715653e-05 0.000000e+00  -4.171865e-05 -6.777308e-05 0.000000e+00  1.992208e-05 -4.847112e-05 0.000000e+00  6.350587e-05 -2.961362e-05 0.000000e+00  8.974567e-05 -1.167967e-05 0.000000e+00  9.986106e-05 4.681915e-06 0.000000e+00  9.574055e-05 1.858069e-05 0.000000e+00  8.015175e-05 2.880108e-05 0.000000e+00  5.695709e-05 3.371541e-05 0.000000e+00  3.130500e-05 3.129060e-05 0.000000e+00  9.556260e-06 1.970815e-05 0.000000e+00  0.000000e+00 0.000000e+00 0.000000e+00  0.000000e+00 0.000000e+00 0.000000e+00  1.048558e-05 -3.738716e-05 0.000000e+00  3.295143e-05 -5.559456e-05 0.000000e+00  5.715653e-05 -5.699417e-05 0.000000e+00  7.562594e-05 -4.501278e-05 0.000000e+00  8.250028e-05 -2.302514e-05 0.000000e+00  7.323791e-05 6.135773e-06 0.000000e+00  4.445820e-05 4.024615e-05 0.000000e+00  -6.249994e-06 7.760401e-05 0.000000e+00  -8.049927e-05 1.169172e-04 0.000000e+00  -1.792613e-04 1.572038e-04 0.000000e+00  -3.029970e-04 1.977143e-04 0.000000e+00  -4.517616e-04 2.378739e-04 0.000000e+00  -6.252777e-04 2.772371e-04 0.000000e+00  -8.230608e-04 3.154688e-04 0.000000e+00  -1.044368e-03 3.522987e-04 0.000000e+00  -1.288287e-03 3.875174e-04 0.000000e+00  -1.553838e-03 4.209720e-04 0.000000e+00  -1.839954e-03 4.525465e-04 0.000000e+00  -2.145423e-03 4.821463e-04 0.000000e+00  -2.468964e-03 5.097022e-04 0.000000e+00  -2.809332e-03 5.351718e-04 0.000000e+00  -3.165261e-03 5.585278e-04 0.000000e+00  -3.535374e-03 5.797497e-04 0.000000e+00  -3.918275e-03 5.988289e-04 0.000000e+00  -4.312655e-03 6.157709e-04 0.000000e+00  -4.717215e-03 6.305874e-04 0.000000e+00  -5.130555e-03 6.432920e-04 0.000000e+00  -5.551280e-03 6.539044e-04 0.000000e+00  -5.978115e-03 6.624518e-04 0.000000e+00  -6.409801e-03 6.689634e-04 0.000000e+00  -6.844988e-03 6.734698e-04 0.000000e+00  -7.282342e-03 6.760048e-04 0.000000e+00  -7.720662e-03 6.766057e-04 0.000000e+00  -8.158773e-03 6.753101e-04 0.000000e+00  -8.595407e-03 6.721578e-04 0.000000e+00  -9.029326e-03 6.671909e-04 0.000000e+00  -9.459427e-03 6.604515e-04 0.000000e+00  -9.884634e-03 6.519826e-04 0.000000e+00  -1.030379e-02 6.418301e-04 0.000000e+00  -1.071577e-02 6.300421e-04 0.000000e+00  -1.111958e-02 6.166652e-04 0.000000e+00  -1.151427e-02 6.017468e-04 0.000000e+00  -1.189879e-02 5.853394e-04 0.000000e+00  -1.227217e-02 5.674976e-04 0.000000e+00  -1.263353e-02 5.482738e-04 0.000000e+00  -1.298205e-02 5.277212e-04 0.000000e+00  -1.331683e-02 5.059001e-04 0.000000e+00  -1.363705e-02 4.828732e-04 0.000000e+00  -1.394198e-02 4.586997e-04 0.000000e+00  -1.423093e-02 4.334397e-04 0.000000e+00  -1.450320e-02 4.071616e-04 0.000000e+00  -1.475810e-02 3.799359e-04 0.000000e+00  -1.499509e-02 3.518277e-04 0.000000e+00  -1.521364e-02 3.229033e-04 0.000000e+00  -1.541322e-02 2.932370e-04 0.000000e+00  -1.559335e-02 2.629050e-04 0.000000e+00  -1.575364e-02 2.319764e-04 0.000000e+00  -1.589377e-02 2.005206e-04 0.000000e+00  -1.601337e-02 1.686157e-04 0.000000e+00  -1.611219e-02 1.363406e-04 0.000000e+00  -1.619001e-02 1.037661e-04 0.000000e+00  -1.624668e-02 7.096321e-05 0.000000e+00  -1.628206e-02 3.801128e-05 0.000000e+00  -1.629607e-02 4.989945e-06 0.000000e+00  -1.628871e-02 -2.802973e-05 0.000000e+00  -1.625998e-02 -6.097684e-05 0.000000e+00  -1.620996e-02 -9.377229e-05 0.000000e+00  -1.613879e-02 -1.263375e-04 0.000000e+00  -1.604662e-02 -1.586028e-04 0.000000e+00  -1.593366e-02 -1.904992e-04 0.000000e+00  -1.580017e-02 -2.219504e-04 0.000000e+00  -1.564650e-02 -2.528814e-04 0.000000e+00  -1.547298e-02 -2.832266e-04 0.000000e+00  -1.527998e-02 -3.129217e-04 0.000000e+00  -1.506796e-02 -3.418966e-04 0.000000e+00  -1.483745e-02 -3.700833e-04 0.000000e+00  -1.458894e-02 -3.974233e-04 0.000000e+00  -1.432296e-02 -4.238598e-04 0.000000e+00  -1.404015e-02 -4.493314e-04 0.000000e+00  -1.374119e-02 -4.737791e-04 0.000000e+00  -1.342672e-02 -4.971521e-04 0.000000e+00  -1.309741e-02 -5.194009e-04 0.000000e+00  -1.275405e-02 -5.404710e-04 0.000000e+00  -1.239746e-02 -5.603094e-04 0.000000e+00  -1.202842e-02 -5.788686e-04 0.000000e+00  -1.164772e-02 -5.960999e-04 0.000000e+00  -1.125628e-02 -6.119489e-04 0.000000e+00  -1.085509e-02 -6.263605e-04 0.000000e+00  -1.044502e-02 -6.392814e-04 0.000000e+00  -1.002703e-02 -6.506551e-04 0.000000e+00  -9.602187e-03 -6.604193e-04 0.000000e+00  -9.171608e-03 -6.685104e-04 0.000000e+00  -8.736344e-03 -6.748645e-04 0.000000e+00  -8.297486e-03 -6.794154e-04 0.000000e+00  -7.856278e-03 -6.820943e-04 0.000000e+00  -7.414005e-03 -6.828337e-04 0.000000e+00  -6.971882e-03 -6.815677e-04 0.000000e+00  -6.531163e-03 -6.782319e-04 