<?xml version="1.0"?>
<VTKFile type="UnstructuredGrid"  version="0.1"  >
<UnstructuredGrid>
<Piece  NumberOfPoints="16641" NumberOfCells="32768">
<Points>
<DataArray  type="Float32"  NumberOfComponents="3"  format="ascii">0 0 0  0.0078125 0 0  0.015625 0 0  0.0234375 0 0  0.03125 0 0  0.0390625 0 0  0.046875 0 0  0.0546875 0 0  0.0625 0 0  0.0703125 0 0  0.078125 0 0  0.0859375 0 0  0.09375 0 0  0.101562 0 0  0.109375 0 0  0.117188 0 0  0.125 0 0  0.132812 0 0  0.140625 0 0  0.148438 0 0  0.15625 0 0  0.164062 0 0  0.171875 0 0  0.179688 0 0  0.1875 0 0  0.195312 0 0  0.203125 0 0  0.210938 0 0  0.21875 0 0  0.226562 0 0  0.234375 0 0  0.242188 0 0  0.25 0 0  0.257812 0 0  0.265625 0 0  0.273438 0 0  0.28125 0 0  0.289062 0 0  0.296875 0 0  0.304688 0 0  0.3125 0 0  0.320312 0 0  0.328125 0 0  0.335938 0 0  0.34375 0 0  0.351562 0 0  0.359375 0 0  0.367188 0 0  0.375 0 0  0.382812 0 0  0.390625 0 0  0.398438 0 0  0.40625 0 0  0.414062 0 0  0.421875 0 0  0.429688 0 0  0.4375 0 0  0.445312 0 0  0.453125 0 0  0.460938 0 0  0.46875 0 0  0.476562 0 0  0.484375 0 0  0.492188 0 0  0.5 0 0  0.507812 0 0  0.515625 0 0  0.523438 0 0  0.53125 0 0  0.539062 0 0  0.546875 0 0  0.554688 0 0  0.5625 0 0  0.570312 0 0  0.578125 0 0  0.585938 0 0  0.59375 0 0  0.601562 0 0  0.609375 0 0  0.617188 0 0  0.625 0 0  0.632812 0 0  0.640625 0 0  0.648438 0 0  0.65625 0 0  0.664062 0 0  0.671875 0 0  0.679688 0 0  0.6875 0 0  0.695312 0 0  0.703125 0 0  0.710938 0 0  0.71875 0 0  0.726562 0 0  0.734375 0 0  0.742188 0 0  0.75 0 0  0.757812 0 0  0.765625 0 0  0.773438 0 0  0.78125 0 0  0.789062 0 0  0.796875 0 0  0.804688 0 0  0.8125 0 0  0.820312 0 0  0.828125 0 0  0.835938 0 0  0.84375 0 0  0.851562 0 0  0.859375 0 0  0.867188 0 0  0.875 0 0  0.882812 0 0  0.890625 0 0  0.898438 0 0  0.90625 0 0  0.914062 0 0  0.921875 0 0  0.929688 0 0  0.9375 0 0  0.945312 0 0  0.953125 0 0  0.960938 0 0  0.96875 0 0  0.976562 0 0  0.984375 0 0  0.992188 0 0  1 0 0  0 0.0078125 0  0.0078125 0.0078125 0  0.015625 0.0078125 0  0.0234375 0.0078125 0  0.03125 0.0078125 0  0.0390625 0.0078125 0  0.046875 0.0078125 0  0.0546875 0.0078125 0  0.0625 0.0078125 0  0.0703125 0.0078125 0  0.078125 0.0078125 0  0.0859375 0.0078125 0  0.09375 0.0078125 0  0.101562 0.0078125 0  0.109375 0.0078125 0  0.117188 0.0078125 0  0.125 0.0078125 0  0.132812 0.0078125 0  0.140625 0.0078125 0  0.148438 0.0078125 0  0.15625 0.0078125 0  0.164062 0.0078125 0  0.171875 0.0078125 0  0.179688 0.0078125 0  0.1875 0.0078125 0  0.195312 0.0078125 0  0.203125 0.0078125 0  0.210938 0.0078125 0  0.21875 0.0078125 0  0.226562 0.0078125 0  0.234375 0.0078125 0  0.242188 0.0078125 0  0.25 0.0078125 0  0.257812 0.0078125 0  0.265625 0.0078125 0  0.273438 0.0078125 0  0.28125 0.0078125 0  0.289062 0.0078125 0  0.296875 0.0078125 0  0.304688 0.0078125 0  0.3125 0.0078125 0  0.320312 0.0078125 0  0.328125 0.0078125 0  0.335938 0.0078125 0  0.34375 0.0078125 0  0.351562 0.0078125 0  0.359375 0.0078125 0  0.367188 0.0078125 0  0.375 0.0078125 0  0.382812 0.0078125 0  0.390625 0.0078125 0  0.398438 0.0078125 0  0.40625 0.0078125 0  0.414062 0.0078125 0  0.421875 0.0078125 0  0.429688 0.0078125 0  0.4375 0.0078125 0  0.445312 0.0078125 0  0.453125 0.0078125 0  0.460938 0.0078125 0  0.46875 0.0078125 0  0.476562 0.0078125 0  0.484375 0.0078125 0  0.492188 0.0078125 0  0.5 0.0078125 0  0.507812 0.0078125 0  0.515625 0.0078125 0  0.523438 0.0078125 0  0.53125 0.0078125 0  0.539062 0.0078125 0  0.546875 0.0078125 0  0.554688 0.0078125 0  0.5625 0.0078125 0  0.570312 0.0078125 0  0.578125 0.0078125 0  0.585938 0.0078125 0  0.59375 0.0078125 0  0.601562 0.0078125 0  0.609375 0.0078125 0  0.617188 0.0078125 0  0.625 0.0078125 0  0.632812 0.0078125 0  0.640625 0.0078125 0  0.648438 0.0078125 0  0.65625 0.0078125 0  0.664062 0.0078125 0  0.671875 0.0078125 0  0.679688 0.0078125 0  0.6875 0.0078125 0  0.695312 0.0078125 0  0.703125 0.0078125 0  0.710938 0.0078125 0  0.71875 0.0078125 0  0.726562 0.0078125 0  0.734375 0.0078125 0  0.742188 0.0078125 0  0.75 0.0078125 0  0.757812 0.0078125 0  0.765625 0.0078125 0  0.773438 0.0078125 0  0.78125 0.0078125 0  0.789062 0.0078125 0  0.796875 0.0078125 0  0.804688 0.0078125 0  0.8125 0.0078125 0  0.820312 0.0078125 0  0.828125 0.0078125 0  0.835938 0.0078125 0  0.84375 0.0078125 0  0.851562 0.0078125 0  0.859375 0.0078125 0  0.867188 0.0078125 0  0.875 0.0078125 0  0.882812 0.0078125 0  0.890625 0.0078125 0  0.898438 0.0078125 0  0.90625 0.0078125 0  0.914062 0.0078125 0  0.921875 0.0078125 0  0.929688 0.0078125 0  0.9375 0.0078125 0  0.945312 0.0078125 0  0.953125 0.0078125 0  0.960938 0.0078125 0  0.96875 0.0078125 0  0.976562 0.0078125 0  0.984375 0.0078125 0  0.992188 0.0078125 0  1 0.0078125 0  0 0.015625 0  0.0078125 0.015625 0  0.015625 0.015625 0  0.0234375 0.015625 0  0.03125 0.015625 0  0.0390625 0.015625 0  0.046875 0.015625 0  0.0546875 0.015625 0  0.0625 0.015625 0  0.0703125 0.015625 0  0.078125 0.015625 0  0.0859375 0.015625 0  0.09375 0.015625 0  0.101562 0.015625 0  0.109375 0.015625 0  0.117188 0.015625 0  0.125 0.015625 0  0.132812 0.015625 0  0.140625 0.015625 0  0.148438 0.015625 0  0.15625 0.015625 0  0.164062 0.015625 0  0.171875 0.015625 0  0.179688 0.015625 0  0.1875 0.015625 0  0.195312 0.015625 0  0.203125 0.015625 0  0.210938 0.015625 0  0.21875 0.015625 0  0.226562 0.015625 0  0.234375 0.015625 0  0.242188 0.015625 0  0.25 0.015625 0  0.257812 0.015625 0  0.265625 0.015625 0  0.273438 0.015625 0  0.28125 0.015625 0  0.289062 0.015625 0  0.296875 0.015625 0  0.304688 0.015625 0  0.3125 0.015625 0  0.320312 0.015625 0  0.328125 0.015625 0  0.335938 0.015625 0  0.34375 0.015625 0  0.351562 0.015625 0  0.359375 0.015625 0  0.367188 0.015625 0  0.375 0.015625 0  0.382812 0.015625 0  0.390625 0.015625 0  0.398438 0.015625 0  0.40625 0.015625 0  0.414062 0.015625 0  0.421875 0.015625 0  0.429688 0.015625 0  0.4375 0.015625 0  0.445312 0.015625 0  0.453125 0.015625 0  0.460938 0.015625 0  0.46875 0.015625 0  0.476562 0.015625 0  0.484375 0.015625 0  0.492188 0.015625 0  0.5 0.015625 0  0.507812 0.015625 0  0.515625 0.015625 0  0.523438 0.015625 0  0.53125 0.015625 0  0.539062 0.015625 0  0.546875 0.015625 0  0.554688 0.015625 0  0.5625 0.015625 0  0.570312 0.015625 0  0.578125 0.015625 0  0.585938 0.015625 0  0.59375 0.015625 0  0.601562 0.015625 0  0.609375 0.015625 0  0.617188 0.015625 0  0.625 0.015625 0  0.632812 0.015625 0  0.640625 0.015625 0  0.648438 0.015625 0  0.65625 0.015625 0  0.664062 0.015625 0  0.671875 0.015625 0  0.679688 0.015625 0  0.6875 0.015625 0  0.695312 0.015625 0  0.703125 0.015625 0  0.710938 0.015625 0  0.71875 0.015625 0  0.726562 0.015625 0  0.734375 0.015625 0  0.742188 0.015625 0  0.75 0.015625 0  0.757812 0.015625 0  0.765625 0.015625 0  0.773438 0.015625 0  0.78125 0.015625 0  0.789062 0.015625 0  0.796875 0.015625 0  0.804688 0.015625 0  0.8125 0.015625 0  0.820312 0.015625 0  0.828125 0.015625 0  0.835938 0.015625 0  0.84375 0.015625 0  0.851562 0.015625 0  0.859375 0.015625 0  0.867188 0.015625 0  0.875 0.015625 0  0.882812 0.015625 0  0.890625 0.015625 0  0.898438 0.015625 0  0.90625 0.015625 0  0.914062 0.015625 0  0.921875 0.015625 0  0.929688 0.015625 0  0.9375 0.015625 0  0.945312 0.015625 0  0.953125 0.015625 0  0.960938 0.015625 0  0.96875 0.015625 0  0.976562 0.015625 0  0.984375 0.015625 0  0.992188 0.015625 0  1 0.015625 0  0 0.0234375 0  0.0078125 0.0234375 0  0.015625 0.0234375 0  0.0234375 0.0234375 0  0.03125 0.0234375 0  0.0390625 0.0234375 0  0.046875 0.0234375 0  0.0546875 0.0234375 0  0.0625 0.0234375 0  0.0703125 0.0234375 0  0.078125 0.0234375 0  0.0859375 0.0234375 0  0.09375 0.0234375 0  0.101562 0.0234375 0  0.109375 0.0234375 0  0.117188 0.0234375 0  0.125 0.0234375 0  0.132812 0.0234375 0  0.140625 0.0234375 0  0.148438 0.0234375 0  0.15625 0.0234375 0  0.164062 0.0234375 0  0.171875 0.0234375 0  0.179688 0.0234375 0  0.1875 0.0234375 0  0.195312 0.0234375 0  0.203125 0.0234375 0  0.210938 0.0234375 0  0.21875 0.0234375 0  0.226562 0.0234375 0  0.234375 0.0234375 0  0.242188 0.0234375 0  0.25 0.0234375 0  0.257812 0.0234375 0  0.265625 0.0234375 0  0.273438 0.0234375 0  0.28125 0.0234375 0  0.289062 0.0234375 0  0.296875 0.0234375 0  0.304688 0.0234375 0  0.3125 0.0234375 0  0.320312 0.0234375 0  0.328125 0.0234375 0  0.335938 0.0234375 0  0.34375 0.0234375 0  0.351562 0.0234375 0  0.359375 0.0234375 0  0.367188 0.0234375 0  0.375 0.0234375 0  0.382812 0.0234375 0  0.390625 0.0234375 0  0.398438 0.0234375 0  0.40625 0.0234375 0  0.414062 0.0234375 0  0.421875 0.0234375 0  0.429688 0.0234375 0  0.4375 0.0234375 0  0.445312 0.0234375 0  0.453125 0.0234375 0  0.460938 0.0234375 0  0.46875 0.0234375 0  0.476562 0.0234375 0  0.484375 0.0234375 0  0.492188 0.0234375 0  0.5 0.0234375 0  0.507812 0.0234375 0  0.515625 0.0234375 0  0.523438 0.0234375 0  0.53125 0.0234375 0  0.539062 0.0234375 0  0.546875 0.0234375 0  0.554688 0.0234375 0  0.5625 0.0234375 0  0.570312 0.0234375 0  0.578125 0.0234375 0  0.585938 0.0234375 0  0.59375 0.0234375 0  0.601562 0.0234375 0  0.609375 0.0234375 0  0.617188 0.0234375 0  0.625 0.0234375 0  0.632812 0.0234375 0  0.640625 0.0234375 0  0.648438 0.0234375 0  0.65625 0.0234375 0  0.664062 0.0234375 0  0.671875 0.0234375 0  0.679688 0.0234375 0  0.6875 0.0234375 0  0.695312 0.0234375 0  0.703125 0.0234375 0  0.710938 0.0234375 0  0.71875 0.0234375 0  0.726562 0.0234375 0  0.734375 0.0234375 0  0.742188 0.0234375 0  0.75 0.0234375 0  0.757812 0.0234375 0  0.765625 0.0234375 0  0.773438 0.0234375 0  0.78125 0.0234375 0  0.789062 0.0234375 0  0.796875 0.0234375 0  0.804688 0.0234375 0  0.8125 0.0234375 0  0.820312 0.0234375 0  0.828125 0.0234375 0  0.835938 0.0234375 0  0.84375 0.0234375 0  0.851562 0.0234375 0  0.859375 0.0234375 0  0.867188 0.0234375 0  0.875 0.0234375 0  0.882812 0.0234375 0  0.890625 0.0234375 0  0.898438 0.0234375 0  0.90625 0.0234375 0  0.914062 0.0234375 0  0.921875 0.0234375 0  0.929688 0.0234375 0  0.9375 0.0234375 0  0.945312 0.0234
[...]
<PointData  Vectors="u"> 
<DataArray  type="Float32"  Name="u"  NumberOfComponents="3" format="ascii">0.000000e+00 0.000000e+00 0.000000e+00  0.000000e+00 0.000000e+00 0.000000e+00  0.000000e+00 0.000000e+00 0.000000e+00  0.000000e+00 0.000000e+00 0.000000e+00  0.000000e+00 0.000000e+00 0.000000e+00  0.000000e+00 0.000000e+00 0.000000e+00  0.000000e+00 0.000000e+00 0.000000e+00  0.000000e+00 0.000000e+00 0.000000e+00  0.000000e+00 0.000000e+00 0.000000e+00  0.000000e+00 0.000000e+00 0.000000e+00  0.000000e+00 0.000000e+00 0.000000e+00  0.000000e+00 0.000000e+00 0.000000e+00  0.000000e+00 0.000000e+00 0.000000e+00  0.000000e+00 0.000000e+00 0.000000e+00  0.000000e+00 0.000000e+00 0.000000e+00  0.000000e+00 0.000000e+00 0.000000e+00  0.000000e+00 0.000000e+00 0.000000e+00  0.000000e+00 0.000000e+00 0.000000e+00  0.000000e+00 0.000000e+00 0.000000e+00  0.000000e+00 0.000000e+00 0.000000e+00  0.000000e+00 0.000000e+00 0.000000e+00  0.000000e+00 0.000000e+00 0.000000e+00  0.000000e+00 0.000000e+00 0.000000e+00  0.000000e+00 0.000000e+00 0.000000e+00  0.000000e+00 0.000000e+00 0.000000e+00  0.000000e+00 0.000000e+00 0.000000e+00  0.000000e+00 0.000000e+00 0.000000e+00  0.000000e+00 0.000000e+00 0.000000e+00  0.000000e+00 0.000000e+00 0.000000e+00  0.000000e+00 0.000000e+00 0.000000e+00  0.000000e+00 0.000000e+00 0.000000e+00  0.000000e+00 0.000000e+00 0.000000e+00  0.000000e+00 0.000000e+00 0.000000e+00  0.000000e+00 0.000000e+00 0.000000e+00  0.000000e+00 0.000000e+00 0.000000e+00  0.000000e+00 0.000000e+00 0.000000e+00  0.000000e+00 0.000000e+00 0.000000e+00  0.000000e+00 0.000000e+00 0.000000e+00  0.000000e+00 0.000000e+00 0.000000e+00  0.000000e+00 0.000000e+00 0.000000e+00  0.000000e+00 0.000000e+00 0.000000e+00  0.000000e+00 0.000000e+00 0.000000e+00  0.000000e+00 0.000000e+00 0.000000e+00  0.000000e+00 0.000000e+00 0.000000e+00  0.000000e+00 0.000000e+00 0.000000e+00  0.000000e+00 0.000000e+00 0.000000e+00  0.000000e+00 0.000000e+00 0.000000e+00  0.000000e+00 0.000000e+00 0.000000e+00  0.000000e+00 0.000000e+00 0.000000e+00  0.000000e+00 0.000000e+00 0.000000e+00  0.000000e+00 0.000000e+00 0.000000e+00  0.000000e+00 0.000000e+00 0.000000e+00  0.000000e+00 0.000000e+00 0.000000e+00  0.000000e+00 0.000000e+00 0.000000e+00  0.000000e+00 0.000000e+00 0.000000e+00  0.000000e+00 0.000000e+00 0.000000e+00  0.000000e+00 0.000000e+00 0.000000e+00  0.000000e+00 0.000000e+00 0.000000e+00  0.000000e+00 0.000000e+00 0.000000e+00  0.000000e+00 0.000000e+00 0.000000e+00  0.000000e+00 0.000000e+00 0.000000e+00  0.000000e+00 0.000000e+00 0.000000e+00  0.000000e+00 0.000000e+00 0.000000e+00  0.000000e+00 0.000000e+00 0.000000e+00  0.000000e+00 0.000000e+00 0.000000e+00  0.000000e+00 0.000000e+00 0.000000e+00  0.000000e+00 0.000000e+00 0.000000e+00  0.000000e+00 0.000000e+00 0.000000e+00  0.000000e+00 0.000000e+00 0.000000e+00  0.000000e+00 0.000000e+00 0.000000e+00  0.000000e+00 0.000000e+00 0.000000e+00  0.000000e+00 0.000000e+00 0.000000e+00  0.000000e+00 0.000000e+00 0.000000e+00  0.000000e+00 0.000000e+00 0.000000e+00  0.000000e+00 0.000000e+00 0.000000e+00  0.000000e+00 0.000000e+00 0.000000e+00  0.000000e+00 0.000000e+00 0.000000e+00  0.000000e+00 0.000000e+00 0.000000e+00  0.000000e+00 0.000000e+00 0.000000e+00  0.000000e+00 0.000000e+00 0.000000e+00  0.000000e+00 0.000000e+00 0.000000e+00  0.000000e+00 0.000000e+00 0.000000e+00  0.000000e+00 0.000000e+00 0.000000e+00  0.000000e+00 0.000000e+00 0.000000e+00  0.000000e+00 0.000000e+00 0.000000e+00  0.000000e+00 0.000000e+00 0.000000e+00  0.000000e+00 0.000000e+00 0.000000e+00  0.000000e+00 0.000000e+00 0.000000e+00  0.000000e+00 0.000000e+00 0.000000e+00  0.000000e+00 0.000000e+00 0.000000e+00  0.000000e+00 0.000000e+00 0.000000e+00  0.000000e+00 0.000000e+00 0.000000e+00  0.000000e+00 0.000000e+00 0.000000e+00  0.000000e+00 0.000000e+00 0.000000e+00  0.000000e+00 0.000000e+00 0.000000e+00  0.000000e+00 0.000000e+00 0.000000e+00  0.000000e+00 0.000000e+00 0.000000e+00  0.000000e+00 0.000000e+00 0.000000e+00  0.000000e+00 0.000000e+00 0.000000e+00  0.000000e+00 0.000000e+00 0.000000e+00  0.000000e+00 0.000000e+00 0.000000e+00  0.000000e+00 0.000000e+00 0.000000e+00  0.000000e+00 0.000000e+00 0.000000e+00  0.000000e+00 0.000000e+00 0.000000e+00  0.000000e+00 0.000000e+00 0.000000e+00  0.000000e+00 0.000000e+00 0.000000e+00  0.000000e+00 0.000000e+00 0.000000e+00  0.000000e+00 0.000000e+00 0.000000e+00  0.000000e+00 0.000000e+00 0.000000e+00  0.000000e+00 0.000000e+00 0.000000e+00  0.000000e+00 0.000000e+00 0.000000e+00  0.000000e+00 0.000000e+00 0.000000e+00  0.000000e+00 0.000000e+00 0.000000e+00  0.000000e+00 0.000000e+00 0.000000e+00  0.000000e+00 0.000000e+00 0.000000e+00  0.000000e+00 0.000000e+00 0.000000e+00  0.000000e+00 0.000000e+00 0.000000e+00  0.000000e+00 0.000000e+00 0.000000e+00  0.000000e+00 0.000000e+00 0.000000e+00  0.000000e+00 0.000000e+00 0.000000e+00  0.000000e+00 0.000000e+00 0.000000e+00  0.000000e+00 0.000000e+00 0.000000e+00  0.000000e+00 0.000000e+00 0.000000e+00  0.000000e+00 0.000000e+00 0.000000e+00  0.000000e+00 0.000000e+00 0.000000e+00  0.000000e+00 0.000000e+00 0.000000e+00  0.000000e+00 0.000000e+00 0.000000e+00  0.000000e+00 0.000000e+00 0.000000e+00  0.000000e+00 0.000000e+00 0.000000e+00  0.000000e+00 0.000000e+00 0.000000e+00  5.274171e-06 -5.274150e-06 0.000000e+00  1.888410e-05 -9.246416e-06 0.000000e+00  3.658330e-05 -1.022916e-05 0.000000e+00  5.373486e-05 -9.042163e-06 0.000000e+00  6.707948e-05 -6.384282e-06 0.000000e+00  7.433076e-05 -2.761871e-06 0.000000e+00  7.397723e-05 1.474526e-06 0.000000e+00  6.505368e-05 6.083738e-06 0.000000e+00  4.698340e-05 1.089609e-05 0.000000e+00  1.947026e-05 1.579012e-05 0.000000e+00  -1.757690e-05 2.067745e-05 0.000000e+00  -6.409749e-05 2.549287e-05 0.000000e+00  -1.199136e-04 3.018743e-05 0.000000e+00  -1.847769e-04 3.472546e-05 0.000000e+00  -2.583562e-04 3.907878e-05 0.000000e+00  -3.402661e-04 4.322601e-05 0.000000e+00  -4.301040e-04 4.715211e-05 0.000000e+00  -5.274428e-04 5.084593e-05 0.000000e+00  -6.318105e-04 5.429853e-05 0.000000e+00  -7.427162e-04 5.750357e-05 0.000000e+00  -8.596860e-04 6.045763e-05 0.000000e+00  -9.822423e-04 6.315881e-05 0.000000e+00  -1.109873e-03 6.560585e-05 0.000000e+00  -1.242061e-03 6.779868e-05 0.000000e+00  -1.378326e-03 6.973880e-05 0.000000e+00  -1.518189e-03 7.142833e-05 0.000000e+00  -1.661142e-03 7.286960e-05 0.000000e+00  -1.806680e-03 7.406559e-05 0.000000e+00  -1.954340e-03 7.502009e-05 0.000000e+00  -2.103670e-03 7.573716e-05 0.000000e+00  -2.254185e-03 7.622102e-05 0.000000e+00  -2.405411e-03 7.647624e-05 0.000000e+00  -2.556919e-03 7.650779e-05 0.000000e+00  -2.708291e-03 7.632071e-05 0.000000e+00  -2.859081e-03 7.592028e-05 0.000000e+00  -3.008852e-03 7.531205e-05 0.000000e+00  -3.157220e-03 7.450158e-05 0.000000e+00  -3.303806e-03 7.349448e-05 0.000000e+00  -3.448210e-03 7.229675e-05 0.000000e+00  -3.590041e-03 7.091458e-05 0.000000e+00  -3.728959e-03 6.935398e-05 0.000000e+00  -3.864633e-03 6.762100e-05 0.000000e+00  -3.996712e-03 6.572223e-05 0.000000e+00  -4.124856e-03 6.366450e-05 0.000000e+00  -4.248775e-03 6.145425e-05 0.000000e+00  -4.368187e-03 5.909797e-05 0.000000e+00  -4.482795e-03 5.660292e-05 0.000000e+00  -4.592318e-03 5.397651e-05 0.000000e+00  -4.696516e-03 5.122565e-05 0.000000e+00  -4.795162e-03 4.835730e-05 0.000000e+00  -4.888018e-03 4.537926e-05 0.000000e+00  -4.974863e-03 4.229947e-05 0.000000e+00  -5.055515e-03 3.912521e-05 0.000000e+00  -5.129804e-03 3.586375e-05 0.000000e+00  -5.197553e-03 3.252327e-05 0.000000e+00  -5.258608e-03 2.911203e-05 0.000000e+00  -5.312843e-03 2.563747e-05 0.000000e+00  -5.360146e-03 2.210701e-05 0.000000e+00  -5.400409e-03 1.852902e-05 0.000000e+00  -5.433540e-03 1.491187e-05 0.000000e+00  -5.459475e-03 1.126305e-05 0.000000e+00  -5.478161e-03 7.590010e-06 0.000000e+00  -5.489555e-03 3.901161e-06 0.000000e+00  -5.493632e-03 2.049182e-07 0.000000e+00  -5.490388e-03 -3.491252e-06 0.000000e+00  -5.479828e-03 -7.179898e-06 0.000000e+00  -5.461977e-03 -1.085262e-05 0.000000e+00  -5.436876e-03 -1.450104e-05 0.000000e+00  -5.404579e-03 -1.811773e-05 0.000000e+00  -5.365152e-03 -2.169528e-05 0.000000e+00  -5.318684e-03 -2.522541e-05 0.000000e+00  -5.265284e-03 -2.869986e-05 0.000000e+00  -5.205063e-03 -3.211137e-05 0.000000e+00  -5.138146e-03 -3.545269e-05 0.000000e+00  -5.064686e-03 -3.871581e-05 0.000000e+00  -4.984857e-03 -4.189282e-05 0.000000e+00  -4.898826e-03 -4.497677e-05 0.000000e+00  -4.806774e-03 -4.796078e-05 0.000000e+00  -4.708916e-03 -5.083730e-05 0.000000e+00  -4.605486e-03 -5.359897e-05 0.000000e+00  -4.496706e-03 -5.623926e-05 0.000000e+00  -4.382808e-03 -5.875171e-05 0.000000e+00  -4.264066e-03 -6.112932e-05 0.000000e+00  -4.140770e-03 -6.336520e-05 0.000000e+00  -4.013192e-03 -6.545315e-05 0.000000e+00  -3.881614e-03 -6.738692e-05 0.000000e+00  -3.746365e-03 -6.915977e-05 0.000000e+00  -3.607789e-03 -7.076501e-05 0.000000e+00  -3.466206e-03 -7.219635e-05 0.000000e+00  -3.321948e-03 -7.344738e-05 0.000000e+00  -3.175399e-03 -7.451128e-05 0.000000e+00  -3.026954e-03 -7.538126e-05 0.000000e+00  -2.876986e-03 -7.605074e-05 0.000000e+00  -2.725877e-03 -7.651306e-05 0.000000e+00  -2.574065e-03 -7.676143e-05 0.000000e+00  -2.421998e-03 -7.678927e-05 0.000000e+00  -2.270100e-03 -7.659019e-05 0.000000e+00  -2.118805e-03 -7.615795e-05 0.000000e+00  -1.968599e-03 -7.548672e-05 0.000000e+00  -1.819979e-03 -7.457118e-05 0.000000e+00  -1.673412e-03 -7.340635e-05 0.000000e+00  -1.529375e-03 -7.198773e-05 0.000000e+00  -1.388391e-03 -7.031185e-05 0.000000e+00  -1.250987e-03 -6.837618e-05 0.000000e+00  -1.117657e-03 -6.617862e-05 0.000000e+00  -9.889012e-04 -6.371799e-05 0.000000e+00  -8.652518e-04 -6.099484e-05 0.000000e+00  -7.472370e-04 -5.801115e-05 0.000000e+00  -6.353483e-04 -5.476970e-05 0.000000e+00  -5.300716e-04 -5.127490e-05 0.000000e+00  -4.319079e-04 -4.753414e-05 0.000000e+00  -3.413373e-04 -4.355750e-05 0.000000e+00  -2.587925e-04 -3.935724e-05 0.000000e+00  -1.846798e-04 -3.494955e-05 0.000000e+00  -1.193858e-04 -3.035685e-05 0.000000e+00  -6.324126e-05 -2.560844e-05 0.000000e+00  -1.649434e-05 -2.074134e-05 0.000000e+00  2.068977e-05 -1.580463e-05 0.000000e+00  4.825056e-05 -1.086532e-05 0.000000e+00  6.628616e-05 -6.013785e-06 0.000000e+00  7.510765e-05 -1.372577e-06 0.000000e+00  7.530418e-05 2.886728e-06 0.000000e+00  6.785576e-05 6.518331e-06 0.000000e+00  5.429464e-05 9.166401e-06 0.000000e+00  3.691362e-05 1.031166e-05 0.000000e+00  1.908762e-05 9.242514e-06 0.000000e+00  5.206087e-06 5.206511e-06 0.000000e+00  0.000000e+00 0.000000e+00 0.000000e+00  0.000000e+00 0.000000e+00 0.000000e+00  9.252202e-06 -1.888759e-05 0.000000e+00  2.995122e-05 -2.993550e-05 0.000000e+00  5.438729e-05 -3.211975e-05 0.000000e+00  7.628798e-05 -2.723733e-05 0.000000e+00  9.074983e-05 -1.726301e-05 0.000000e+00  9.406961e-05 -3.782955e-06 0.000000e+00  8.362035e-05 1.202962e-05 0.000000e+00  5.761182e-05 2.931961e-05 0.000000e+00  1.490272e-05 4.746178e-05 0.000000e+00  -4.515319e-05 6.599509e-05 0.000000e+00  -1.228242e-04 8.457598e-05 0.000000e+00  -2.180890e-04 1.029459e-04 0.000000e+00  -3.306953e-04 1.209077e-04 0.000000e+00  -4.602493e-04 1.383151e-04 0.000000e+00  -6.061867e-04 1.550512e-04 0.000000e+00  -7.678308e-04 1.710263e-04 0.000000e+00  -9.444639e-04 1.861756e-04 0.000000e+00  -1.135314e-03 2.004503e-04 0.000000e+00  -1.339513e-03 2.138107e-04 0.000000e+00  -1.556152e-03 2.262281e-04 0.000000e+00  -1.784351e-03 2.376854e-04 0.000000e+00  -2.023213e-03 2.481720e-04 0.000000e+00  -2.271775e-03 2.576800e-04 0.000000e+00  -2.529058e-03 2.662067e-04 0.000000e+00  -2.794150e-03 2.737559e-04 0.000000e+00  -3.066141e-03 2.803338e-04 0.000000e+00  -3.344061e-03 2.859479e-04 0.000000e+00  -3.626941e-03 2.906084e-04 0.000000e+00  -3.913898e-03 2.943288e-04 0.000000e+00  -4.204060e-03 2.971239e-04 0.000000e+00  -4.496496e-03 2.990092e-04 0.000000e+00  -4.790290e-03 3.000017e-04 0.000000e+00  -5.084616e-03 3.001200e-04 0.000000e+00  -5.378668e-03 2.993835e-04 0.000000e+00  -5.671582e-03 2.978121e-04 0.000000e+00  -5.962515e-03 2.954271e-04 0.000000e+00  -6.250717e-03 2.922500e-04 0.000000e+00  -6.535461e-03 2.883023e-04 0.000000e+00  -6.815966e-03 2.836074e-04 0.000000e+00  -7.091477e-03 2.781894e-04 0.000000e+00  -7.361332e-03 2.720715e-04 0.000000e+00  -7.624890e-03 2.652775e-04 0.000000e+00  -7.881467e-03 2.578331e-04 0.000000e+00  -8.130406e-03 2.497649e-04 0.000000e+00  -8.371140e-03 2.410982e-04 0.000000e+00  -8.603124e-03 2.318584e-04 0.000000e+00  -8.825780e-03 2.220740e-04 0.000000e+00  -9.038560e-03 2.117740e-04 0.000000e+00  -9.241000e-03 2.009854e-04 0.000000e+00  -9.432658e-03 1.897357e-04 0.000000e+00  -9.613072e-03 1.780552e-04 0.000000e+00  -9.781811e-03 1.659753e-04 0.000000e+00  -9.938522e-03 1.535242e-04 0.000000e+00  -1.008287e-02 1.407308e-04 0.000000e+00  -1.021452e-02 1.276269e-04 0.000000e+00  -1.033316e-02 1.142450e-04 0.000000e+00  -1.043856e-02 1.006142e-04 0.000000e+00  -1.053049e-02 8.676381e-05 0.000000e+00  -1.060874e-02 7.272650e-05 0.000000e+00  -1.067314e-02 5.853523e-05 0.000000e+00  -1.072355e-02 4.421936e-05 0.000000e+00  -1.075988e-02 2.980819e-05 0.000000e+00  -1.078205e-02 1.533474e-05 0.000000e+00  -1.078999e-02 8.320732e-07 0.000000e+00  -1.078371e-02 -1.367050e-05 0.000000e+00  -1.076322e-02 -2.814368e-05 0.000000e+00  -1.072856e-02 -4.255447e-05 0.000000e+00  -1.067981e-02 -5.686997e-05 0.000000e+00  -1.061708e-02 -7.106105e-05 0.000000e+00  -1.054049e-02 -8.509860e-05 0.000000e+00  -1.045022e-02 -9.895004e-05 0.000000e+00  -1.034649e-02 -1.125831e-04 0.000000e+00  -1.022950e-02 -1.259691e-04 0.000000e+00  -1.009949e-02 -1.390797e-04 0.000000e+00  -9.956777e-03 -1.518835e-04 0.000000e+00  -9.801685e-03 -1.643493e-04 0.000000e+00  -9.634542e-03 -1.764499e-04 0.000000e+00  -9.455698e-03 -1.881583e-04 0.000000e+00  -9.265574e-03 -1.994447e-04 0.000000e+00  -9.064624e-03 -2.102803e-04 0.000000e+00  -8.853277e-03 -2.206393e-04 0.000000e+00  -8.631987e-03 -2.304963e-04 0.000000e+00  -8.401287e-03 -2.398237e-04 0.000000e+00  -8.161740e-03 -2.485944e-04 0.000000e+00  -7.913876e-03 -2.567841e-04 0.000000e+00  -7.658243e-03 -2.643681e-04 0.000000e+00  -7.395483e-03 -2.713200e-04 0.000000e+00  -7.126262e-03 -2.776136e-04 0.000000e+00  -6.851205e-03 -2.832242e-04 0.000000e+00  -6.570958e-03 -2.881270e-04 0.000000e+00  -6.286265e-03 -2.922954e-04 0.000000e+00  -5.997895e-03 -2.957031e-04 0.000000e+00  -5.706570e-03 -2.983248e-04 0.000000e+00  -5.413034e-03 -3.001349e-04 0.000000e+00  -5.118132e-03 -3.011075e-04 0.000000e+00  -4.822733e-03 -3.012176e-04 0.000000e+00  -4.527654e-03 -3.004411e-04 0.000000e+00  -4.233733e-03 -2.987544e-04 0.000000e+00  -3.941908e-03 -2.961359e-04 0.000000e+00  -3.653131e-03 -2.925661e-04 0.000000e+00  -3.368301e-03 -2.880266e-04 0.000000e+00  -3.088330e-03 -2.825014e-04 0.000000e+00  -2.814218e-03 -2.759786e-04 0.000000e+00  -2.546970e-03 -2.684498e-04 0.000000e+00  -2.287525e-03 -2.599090e-04 0.000000e+00  -2.036830e-03 -2.503537e-04 0.000000e+00  -1.795891e-03 -2.397883e-04 0.000000e+00  -1.565705e-03 -2.282234e-04 0.000000e+00  -1.347190e-03 -2.156730e-04 0.000000e+00  -1.141250e-03 -2.021578e-04 0.000000e+00  -9.488126e-04 -1.877108e-04 0.000000e+00  -7.707609e-04 -1.723757e-04 0.000000e+00  -6.078774e-04 -1.562057e-04 0.000000e+00  -4.608864e-04 -1.392698e-04 0.000000e+00  -3.304675e-04 -1.216619e-04 0.000000e+00  -2.171842e-04 -1.035029e-04 0.000000e+00  -1.214308e-04 -8.494439e-05 0.000000e+00  -4.343425e-05 -6.618379e-05 0.000000e+00  1.678264e-05 -4.748607e-05 0.000000e+00  5.949960e-05 -2.920139e-05 0.000000e+00  8.539112e-05 -1.179298e-05 0.000000e+00  9.562216e-05 4.110829e-06 0.000000e+00  9.200612e-05 1.764663e-05 0.000000e+00  7.720977e-05 2.763442e-05 0.000000e+00  5.496430e-05 3.249203e-05 0.000000e+00  3.025333e-05 3.023878e-05 0.000000e+00  9.246637e-06 1.909024e-05 0.000000e+00  0.000000e+00 0.000000e+00 0.000000e+00  0.000000e+00 0.000000e+00 0.000000e+00  1.026132e-05 -3.661942e-05 0.000000e+00  3.222939e-05 -5.440493e-05 0.000000e+00  5.586151e-05 -5.570225e-05 0.000000e+00  7.382832e-05 -4.387966e-05 0.000000e+00  8.038500e-05 -2.224844e-05 0.000000e+00  7.107888e-05 6.414076e-06 0.000000e+00  4.259520e-05 3.992888e-05 0.000000e+00  -7.430852e-06 7.662876e-05 0.000000e+00  -8.058171e-05 1.152480e-04 0.000000e+00  -1.778118e-04 1.548247e-04 0.000000e+00  -2.995749e-04 1.946242e-04 0.000000e+00  -4.459268e-04 2.340824e-04 0.000000e+00  -6.165966e-04 2.727614e-04 0.000000e+00  -8.111096e-04 3.103312e-04 0.000000e+00  -1.028737e-03 3.465247e-04 0.000000e+00  -1.268581e-03 3.811338e-04 0.000000e+00  -1.529677e-03 4.140060e-04 0.000000e+00  -1.810975e-03 4.450240e-04 0.000000e+00  -2.111276e-03 4.740918e-04 0.000000e+00  -2.429316e-03 5.011379e-04 0.000000e+00  -2.763861e-03 5.261176e-04 0.000000e+00  -3.113658e-03 5.490008e-04 0.000000e+00  -3.477339e-03 5.697644e-04 0.000000e+00  -3.853517e-03 5.883976e-04 0.000000e+00  -4.240893e-03 6.049036e-04 0.000000e+00  -4.638171e-03 6.192925e-04 0.000000e+00  -5.043959e-03 6.315769e-04 0.000000e+00  -5.456868e-03 6.417760e-04 0.000000e+00  -5.875626e-03 6.499170e-04 0.000000e+00  -6.298982e-03 6.560298e-04 0.000000e+00  -6.725589e-03 6.601463e-04 0.000000e+00  -7.154125e-03 6.623023e-04 0.000000e+00  -7.583396e-03 6.625374e-04 0.000000e+00  -8.012233e-03 6.608922e-04 0.000000e+00  -8.439385e-03 6.574097e-04 0.000000e+00  -8.863627e-03 6.521360e-04 0.000000e+00  -9.283873e-03 6.451172e-04 0.000000e+00  -9.699064e-03 6.364005e-04 0.000000e+00  -1.010807e-02 6.260364e-04 0.000000e+00  -1.050978e-02 6.140776e-04 0.000000e+00  -1.090325e-02 6.005754e-04 0.000000e+00  -1.128753e-02 5.855813e-04 0.000000e+00  -1.166163e-02 5.691522e-04 0.000000e+00  -1.202460e-02 5.513465e-04 0.000000e+00  -1.237560e-02 5.322199e-04 0.000000e+00  -1.271385e-02 5.118284e-04 0.000000e+00  -1.303850e-02 4.902345e-04 0.000000e+00  -1.334875e-02 4.675024e-04 0.000000e+00  -1.364392e-02 4.436918e-04 0.000000e+00  -1.392339e-02 4.188627e-04 0.000000e+00  -1.418645e-02 3.930826e-04 0.000000e+00  -1.443251e-02 3.664203e-04 0.000000e+00  -1.466102e-02 3.389384e-04 0.000000e+00  -1.487152e-02 3.107000e-04 0.000000e+00  -1.506349e-02 2.817758e-04 0.000000e+00  -1.523651e-02 2.522374e-04 0.000000e+00  -1.539022e-02 2.221490e-04 0.000000e+00  -1.552429e-02 1.915752e-04 0.000000e+00  -1.563842e-02 1.605881e-04 0.000000e+00  -1.573235e-02 1.292607e-04 0.000000e+00  -1.580590e-02 9.765760e-05 0.000000e+00  -1.585891e-02 6.584367e-05 0.000000e+00  -1.589126e-02 3.389183e-05 0.000000e+00  -1.590288e-02 1.875089e-06 0.000000e+00  -1.589376e-02 -3.014177e-05 0.000000e+00  -1.586392e-02 -6.209402e-05 0.000000e+00  -1.581341e-02 -9.390877e-05 0.000000e+00  -1.574236e-02 -1.255134e-04 0.000000e+00  -1.565093e-02 -1.568434e-04 0.000000e+00  -1.553929e-02 -1.878347e-04 0.000000e+00  -1.540770e-02 -2.184152e-04 0.000000e+00  -1.525647e-02 -2.485136e-04 0.000000e+00  -1.508591e-02 -2.780669e-04 0.000000e+00  -1.489637e-02 -3.070122e-04 0.000000e+00  -1.468830e-02 -3.352801e-04 0.000000e+00  -1.446217e-02 -3.628021e-04 0.000000e+00  -1.421848e-02 -3.895179e-04 0.000000e+00  -1.395771e-02 -4.153675e-04 0.000000e+00  -1.368050e-02 -4.402856e-04 0.000000e+00  -1.338750e-02 -4.642080e-04 0.000000e+00  -1.307933e-02 -4.870780e-04 0.000000e+00  -1.275666e-02 -5.088393e-04 0.000000e+00  -1.242027e-02 -5.294307e-04 0.000000e+00  -1.207098e-02 -5.487925e-04 0.000000e+00  -1.170955e-02 -5.668707e-04 0.000000e+00  -1.133680e-02 -5.836109e-04 0.000000e+00  -1.095364e-02 -5.989547e-04 0.000000e+00  -1.056107e-02 -6.128445e-04 0.000000e+00  -1.015999e-02 -6.252262e-04 0.000000e+00  -9.751331e-03 -6.360451e-04 0.000000e+00  -9.336188e-03 -6.452432e-04 0.000000e+00  -8.915679e-03 -6.527634e-04 0.000000e+00  -8.490851e-03 -6.585508e-04 0.000000e+00  -8.062788e-03 -6.625501e-04 0.000000e+00  -7.632716e-03 -6.647055e-04 0.000000e+00  -7.201895e-03 -6.649636e-04 0.000000e+00  -6.771508e-03 -6.632731e-04 0.000000e+00  -6.342769e-03 -6.595844e-04 