<?xml version="1.0"?>
<VTKFile type="UnstructuredGrid"  version="0.1"  >
<UnstructuredGrid>
<Piece  NumberOfPoints="16641" NumberOfCells="32768">
<Points>
<DataArray  type="Float32"  NumberOfComponents="3"  format="ascii">0 0 0  0.0078125 0 0  0.015625 0 0  0.0234375 0 0  0.03125 0 0  0.0390625 0 0  0.046875 0 0  0.0546875 0 0  0.0625 0 0  0.0703125 0 0  0.078125 0 0  0.0859375 0 0  0.09375 0 0  0.101562 0 0  0.109375 0 0  0.117188 0 0  0.125 0 0  0.132812 0 0  0.140625 0 0  0.148438 0 0  0.15625 0 0  0.164062 0 0  0.171875 0 0  0.179688 0 0  0.1875 0 0  0.195312 0 0  0.203125 0 0  0.210938 0 0  0.21875 0 0  0.226562 0 0  0.234375 0 0  0.242188 0 0  0.25 0 0  0.257812 0 0  0.265625 0 0  0.273438 0 0  0.28125 0 0  0.289062 0 0  0.296875 0 0  0.304688 0 0  0.3125 0 0  0.320312 0 0  0.328125 0 0  0.335938 0 0  0.34375 0 0  0.351562 0 0  0.359375 0 0  0.367188 0 0  0.375 0 0  0.382812 0 0  0.390625 0 0  0.398438 0 0  0.40625 0 0  0.414062 0 0  0.421875 0 0  0.429688 0 0  0.4375 0 0  0.445312 0 0  0.453125 0 0  0.460938 0 0  0.46875 0 0  0.476562 0 0  0.484375 0 0  0.492188 0 0  0.5 0 0  0.507812 0 0  0.515625 0 0  0.523438 0 0  0.53125 0 0  0.539062 0 0  0.546875 0 0  0.554688 0 0  0.5625 0 0  0.570312 0 0  0.578125 0 0  0.585938 0 0  0.59375 0 0  0.601562 0 0  0.609375 0 0  0.617188 0 0  0.625 0 0  0.632812 0 0  0.640625 0 0  0.648438 0 0  0.65625 0 0  0.664062 0 0  0.671875 0 0  0.679688 0 0  0.6875 0 0  0.695312 0 0  0.703125 0 0  0.710938 0 0  0.71875 0 0  0.726562 0 0  0.734375 0 0  0.742188 0 0  0.75 0 0  0.757812 0 0  0.765625 0 0  0.773438 0 0  0.78125 0 0  0.789062 0 0  0.796875 0 0  0.804688 0 0  0.8125 0 0  0.820312 0 0  0.828125 0 0  0.835938 0 0  0.84375 0 0  0.851562 0 0  0.859375 0 0  0.867188 0 0  0.875 0 0  0.882812 0 0  0.890625 0 0  0.898438 0 0  0.90625 0 0  0.914062 0 0  0.921875 0 0  0.929688 0 0  0.9375 0 0  0.945312 0 0  0.953125 0 0  0.960938 0 0  0.96875 0 0  0.976562 0 0  0.984375 0 0  0.992188 0 0  1 0 0  0 0.0078125 0  0.0078125 0.0078125 0  0.015625 0.0078125 0  0.0234375 0.0078125 0  0.03125 0.0078125 0  0.0390625 0.0078125 0  0.046875 0.0078125 0  0.0546875 0.0078125 0  0.0625 0.0078125 0  0.0703125 0.0078125 0  0.078125 0.0078125 0  0.0859375 0.0078125 0  0.09375 0.0078125 0  0.101562 0.0078125 0  0.109375 0.0078125 0  0.117188 0.0078125 0  0.125 0.0078125 0  0.132812 0.0078125 0  0.140625 0.0078125 0  0.148438 0.0078125 0  0.15625 0.0078125 0  0.164062 0.0078125 0  0.171875 0.0078125 0  0.179688 0.0078125 0  0.1875 0.0078125 0  0.195312 0.0078125 0  0.203125 0.0078125 0  0.210938 0.0078125 0  0.21875 0.0078125 0  0.226562 0.0078125 0  0.234375 0.0078125 0  0.242188 0.0078125 0  0.25 0.0078125 0  0.257812 0.0078125 0  0.265625 0.0078125 0  0.273438 0.0078125 0  0.28125 0.0078125 0  0.289062 0.0078125 0  0.296875 0.0078125 0  0.304688 0.0078125 0  0.3125 0.0078125 0  0.320312 0.0078125 0  0.328125 0.0078125 0  0.335938 0.0078125 0  0.34375 0.0078125 0  0.351562 0.0078125 0  0.359375 0.0078125 0  0.367188 0.0078125 0  0.375 0.0078125 0  0.382812 0.0078125 0  0.390625 0.0078125 0  0.398438 0.0078125 0  0.40625 0.0078125 0  0.414062 0.0078125 0  0.421875 0.0078125 0  0.429688 0.0078125 0  0.4375 0.0078125 0  0.445312 0.0078125 0  0.453125 0.0078125 0  0.460938 0.0078125 0  0.46875 0.0078125 0  0.476562 0.0078125 0  0.484375 0.0078125 0  0.492188 0.0078125 0  0.5 0.0078125 0  0.507812 0.0078125 0  0.515625 0.0078125 0  0.523438 0.0078125 0  0.53125 0.0078125 0  0.539062 0.0078125 0  0.546875 0.0078125 0  0.554688 0.0078125 0  0.5625 0.0078125 0  0.570312 0.0078125 0  0.578125 0.0078125 0  0.585938 0.0078125 0  0.59375 0.0078125 0  0.601562 0.0078125 0  0.609375 0.0078125 0  0.617188 0.0078125 0  0.625 0.0078125 0  0.632812 0.0078125 0  0.640625 0.0078125 0  0.648438 0.0078125 0  0.65625 0.0078125 0  0.664062 0.0078125 0  0.671875 0.0078125 0  0.679688 0.0078125 0  0.6875 0.0078125 0  0.695312 0.0078125 0  0.703125 0.0078125 0  0.710938 0.0078125 0  0.71875 0.0078125 0  0.726562 0.0078125 0  0.734375 0.0078125 0  0.742188 0.0078125 0  0.75 0.0078125 0  0.757812 0.0078125 0  0.765625 0.0078125 0  0.773438 0.0078125 0  0.78125 0.0078125 0  0.789062 0.0078125 0  0.796875 0.0078125 0  0.804688 0.0078125 0  0.8125 0.0078125 0  0.820312 0.0078125 0  0.828125 0.0078125 0  0.835938 0.0078125 0  0.84375 0.0078125 0  0.851562 0.0078125 0  0.859375 0.0078125 0  0.867188 0.0078125 0  0.875 0.0078125 0  0.882812 0.0078125 0  0.890625 0.0078125 0  0.898438 0.0078125 0  0.90625 0.0078125 0  0.914062 0.0078125 0  0.921875 0.0078125 0  0.929688 0.0078125 0  0.9375 0.0078125 0  0.945312 0.0078125 0  0.953125 0.0078125 0  0.960938 0.0078125 0  0.96875 0.0078125 0  0.976562 0.0078125 0  0.984375 0.0078125 0  0.992188 0.0078125 0  1 0.0078125 0  0 0.015625 0  0.0078125 0.015625 0  0.015625 0.015625 0  0.0234375 0.015625 0  0.03125 0.015625 0  0.0390625 0.015625 0  0.046875 0.015625 0  0.0546875 0.015625 0  0.0625 0.015625 0  0.0703125 0.015625 0  0.078125 0.015625 0  0.0859375 0.015625 0  0.09375 0.015625 0  0.101562 0.015625 0  0.109375 0.015625 0  0.117188 0.015625 0  0.125 0.015625 0  0.132812 0.015625 0  0.140625 0.015625 0  0.148438 0.015625 0  0.15625 0.015625 0  0.164062 0.015625 0  0.171875 0.015625 0  0.179688 0.015625 0  0.1875 0.015625 0  0.195312 0.015625 0  0.203125 0.015625 0  0.210938 0.015625 0  0.21875 0.015625 0  0.226562 0.015625 0  0.234375 0.015625 0  0.242188 0.015625 0  0.25 0.015625 0  0.257812 0.015625 0  0.265625 0.015625 0  0.273438 0.015625 0  0.28125 0.015625 0  0.289062 0.015625 0  0.296875 0.015625 0  0.304688 0.015625 0  0.3125 0.015625 0  0.320312 0.015625 0  0.328125 0.015625 0  0.335938 0.015625 0  0.34375 0.015625 0  0.351562 0.015625 0  0.359375 0.015625 0  0.367188 0.015625 0  0.375 0.015625 0  0.382812 0.015625 0  0.390625 0.015625 0  0.398438 0.015625 0  0.40625 0.015625 0  0.414062 0.015625 0  0.421875 0.015625 0  0.429688 0.015625 0  0.4375 0.015625 0  0.445312 0.015625 0  0.453125 0.015625 0  0.460938 0.015625 0  0.46875 0.015625 0  0.476562 0.015625 0  0.484375 0.015625 0  0.492188 0.015625 0  0.5 0.015625 0  0.507812 0.015625 0  0.515625 0.015625 0  0.523438 0.015625 0  0.53125 0.015625 0  0.539062 0.015625 0  0.546875 0.015625 0  0.554688 0.015625 0  0.5625 0.015625 0  0.570312 0.015625 0  0.578125 0.015625 0  0.585938 0.015625 0  0.59375 0.015625 0  0.601562 0.015625 0  0.609375 0.015625 0  0.617188 0.015625 0  0.625 0.015625 0  0.632812 0.015625 0  0.640625 0.015625 0  0.648438 0.015625 0  0.65625 0.015625 0  0.664062 0.015625 0  0.671875 0.015625 0  0.679688 0.015625 0  0.6875 0.015625 0  0.695312 0.015625 0  0.703125 0.015625 0  0.710938 0.015625 0  0.71875 0.015625 0  0.726562 0.015625 0  0.734375 0.015625 0  0.742188 0.015625 0  0.75 0.015625 0  0.757812 0.015625 0  0.765625 0.015625 0  0.773438 0.015625 0  0.78125 0.015625 0  0.789062 0.015625 0  0.796875 0.015625 0  0.804688 0.015625 0  0.8125 0.015625 0  0.820312 0.015625 0  0.828125 0.015625 0  0.835938 0.015625 0  0.84375 0.015625 0  0.851562 0.015625 0  0.859375 0.015625 0  0.867188 0.015625 0  0.875 0.015625 0  0.882812 0.015625 0  0.890625 0.015625 0  0.898438 0.015625 0  0.90625 0.015625 0  0.914062 0.015625 0  0.921875 0.015625 0  0.929688 0.015625 0  0.9375 0.015625 0  0.945312 0.015625 0  0.953125 0.015625 0  0.960938 0.015625 0  0.96875 0.015625 0  0.976562 0.015625 0  0.984375 0.015625 0  0.992188 0.015625 0  1 0.015625 0  0 0.0234375 0  0.0078125 0.0234375 0  0.015625 0.0234375 0  0.0234375 0.0234375 0  0.03125 0.0234375 0  0.0390625 0.0234375 0  0.046875 0.0234375 0  0.0546875 0.0234375 0  0.0625 0.0234375 0  0.0703125 0.0234375 0  0.078125 0.0234375 0  0.0859375 0.0234375 0  0.09375 0.0234375 0  0.101562 0.0234375 0  0.109375 0.0234375 0  0.117188 0.0234375 0  0.125 0.0234375 0  0.132812 0.0234375 0  0.140625 0.0234375 0  0.148438 0.0234375 0  0.15625 0.0234375 0  0.164062 0.0234375 0  0.171875 0.0234375 0  0.179688 0.0234375 0  0.1875 0.0234375 0  0.195312 0.0234375 0  0.203125 0.0234375 0  0.210938 0.0234375 0  0.21875 0.0234375 0  0.226562 0.0234375 0  0.234375 0.0234375 0  0.242188 0.0234375 0  0.25 0.0234375 0  0.257812 0.0234375 0  0.265625 0.0234375 0  0.273438 0.0234375 0  0.28125 0.0234375 0  0.289062 0.0234375 0  0.296875 0.0234375 0  0.304688 0.0234375 0  0.3125 0.0234375 0  0.320312 0.0234375 0  0.328125 0.0234375 0  0.335938 0.0234375 0  0.34375 0.0234375 0  0.351562 0.0234375 0  0.359375 0.0234375 0  0.367188 0.0234375 0  0.375 0.0234375 0  0.382812 0.0234375 0  0.390625 0.0234375 0  0.398438 0.0234375 0  0.40625 0.0234375 0  0.414062 0.0234375 0  0.421875 0.0234375 0  0.429688 0.0234375 0  0.4375 0.0234375 0  0.445312 0.0234375 0  0.453125 0.0234375 0  0.460938 0.0234375 0  0.46875 0.0234375 0  0.476562 0.0234375 0  0.484375 0.0234375 0  0.492188 0.0234375 0  0.5 0.0234375 0  0.507812 0.0234375 0  0.515625 0.0234375 0  0.523438 0.0234375 0  0.53125 0.0234375 0  0.539062 0.0234375 0  0.546875 0.0234375 0  0.554688 0.0234375 0  0.5625 0.0234375 0  0.570312 0.0234375 0  0.578125 0.0234375 0  0.585938 0.0234375 0  0.59375 0.0234375 0  0.601562 0.0234375 0  0.609375 0.0234375 0  0.617188 0.0234375 0  0.625 0.0234375 0  0.632812 0.0234375 0  0.640625 0.0234375 0  0.648438 0.0234375 0  0.65625 0.0234375 0  0.664062 0.0234375 0  0.671875 0.0234375 0  0.679688 0.0234375 0  0.6875 0.0234375 0  0.695312 0.0234375 0  0.703125 0.0234375 0  0.710938 0.0234375 0  0.71875 0.0234375 0  0.726562 0.0234375 0  0.734375 0.0234375 0  0.742188 0.0234375 0  0.75 0.0234375 0  0.757812 0.0234375 0  0.765625 0.0234375 0  0.773438 0.0234375 0  0.78125 0.0234375 0  0.789062 0.0234375 0  0.796875 0.0234375 0  0.804688 0.0234375 0  0.8125 0.0234375 0  0.820312 0.0234375 0  0.828125 0.0234375 0  0.835938 0.0234375 0  0.84375 0.0234375 0  0.851562 0.0234375 0  0.859375 0.0234375 0  0.867188 0.0234375 0  0.875 0.0234375 0  0.882812 0.0234375 0  0.890625 0.0234375 0  0.898438 0.0234375 0  0.90625 0.0234375 0  0.914062 0.0234375 0  0.921875 0.0234375 0  0.929688 0.0234375 0  0.9375 0.0234375 0  0.945312 0.0234
[...]
<PointData  Vectors="u"> 
<DataArray  type="Float32"  Name="u"  NumberOfComponents="3" format="ascii">0.000000e+00 0.000000e+00 0.000000e+00  0.000000e+00 0.000000e+00 0.000000e+00  0.000000e+00 0.000000e+00 0.000000e+00  0.000000e+00 0.000000e+00 0.000000e+00  0.000000e+00 0.000000e+00 0.000000e+00  0.000000e+00 0.000000e+00 0.000000e+00  0.000000e+00 0.000000e+00 0.000000e+00  0.000000e+00 0.000000e+00 0.000000e+00  0.000000e+00 0.000000e+00 0.000000e+00  0.000000e+00 0.000000e+00 0.000000e+00  0.000000e+00 0.000000e+00 0.000000e+00  0.000000e+00 0.000000e+00 0.000000e+00  0.000000e+00 0.000000e+00 0.000000e+00  0.000000e+00 0.000000e+00 0.000000e+00  0.000000e+00 0.000000e+00 0.000000e+00  0.000000e+00 0.000000e+00 0.000000e+00  0.000000e+00 0.000000e+00 0.000000e+00  0.000000e+00 0.000000e+00 0.000000e+00  0.000000e+00 0.000000e+00 0.000000e+00  0.000000e+00 0.000000e+00 0.000000e+00  0.000000e+00 0.000000e+00 0.000000e+00  0.000000e+00 0.000000e+00 0.000000e+00  0.000000e+00 0.000000e+00 0.000000e+00  0.000000e+00 0.000000e+00 0.000000e+00  0.000000e+00 0.000000e+00 0.000000e+00  0.000000e+00 0.000000e+00 0.000000e+00  0.000000e+00 0.000000e+00 0.000000e+00  0.000000e+00 0.000000e+00 0.000000e+00  0.000000e+00 0.000000e+00 0.000000e+00  0.000000e+00 0.000000e+00 0.000000e+00  0.000000e+00 0.000000e+00 0.000000e+00  0.000000e+00 0.000000e+00 0.000000e+00  0.000000e+00 0.000000e+00 0.000000e+00  0.000000e+00 0.000000e+00 0.000000e+00  0.000000e+00 0.000000e+00 0.000000e+00  0.000000e+00 0.000000e+00 0.000000e+00  0.000000e+00 0.000000e+00 0.000000e+00  0.000000e+00 0.000000e+00 0.000000e+00  0.000000e+00 0.000000e+00 0.000000e+00  0.000000e+00 0.000000e+00 0.000000e+00  0.000000e+00 0.000000e+00 0.000000e+00  0.000000e+00 0.000000e+00 0.000000e+00  0.000000e+00 0.000000e+00 0.000000e+00  0.000000e+00 0.000000e+00 0.000000e+00  0.000000e+00 0.000000e+00 0.000000e+00  0.000000e+00 0.000000e+00 0.000000e+00  0.000000e+00 0.000000e+00 0.000000e+00  0.000000e+00 0.000000e+00 0.000000e+00  0.000000e+00 0.000000e+00 0.000000e+00  0.000000e+00 0.000000e+00 0.000000e+00  0.000000e+00 0.000000e+00 0.000000e+00  0.000000e+00 0.000000e+00 0.000000e+00  0.000000e+00 0.000000e+00 0.000000e+00  0.000000e+00 0.000000e+00 0.000000e+00  0.000000e+00 0.000000e+00 0.000000e+00  0.000000e+00 0.000000e+00 0.000000e+00  0.000000e+00 0.000000e+00 0.000000e+00  0.000000e+00 0.000000e+00 0.000000e+00  0.000000e+00 0.000000e+00 0.000000e+00  0.000000e+00 0.000000e+00 0.000000e+00  0.000000e+00 0.000000e+00 0.000000e+00  0.000000e+00 0.000000e+00 0.000000e+00  0.000000e+00 0.000000e+00 0.000000e+00  0.000000e+00 0.000000e+00 0.000000e+00  0.000000e+00 0.000000e+00 0.000000e+00  0.000000e+00 0.000000e+00 0.000000e+00  0.000000e+00 0.000000e+00 0.000000e+00  0.000000e+00 0.000000e+00 0.000000e+00  0.000000e+00 0.000000e+00 0.000000e+00  0.000000e+00 0.000000e+00 0.000000e+00  0.000000e+00 0.000000e+00 0.000000e+00  0.000000e+00 0.000000e+00 0.000000e+00  0.000000e+00 0.000000e+00 0.000000e+00  0.000000e+00 0.000000e+00 0.000000e+00  0.000000e+00 0.000000e+00 0.000000e+00  0.000000e+00 0.000000e+00 0.000000e+00  0.000000e+00 0.000000e+00 0.000000e+00  0.000000e+00 0.000000e+00 0.000000e+00  0.000000e+00 0.000000e+00 0.000000e+00  0.000000e+00 0.000000e+00 0.000000e+00  0.000000e+00 0.000000e+00 0.000000e+00  0.000000e+00 0.000000e+00 0.000000e+00  0.000000e+00 0.000000e+00 0.000000e+00  0.000000e+00 0.000000e+00 0.000000e+00  0.000000e+00 0.000000e+00 0.000000e+00  0.000000e+00 0.000000e+00 0.000000e+00  0.000000e+00 0.000000e+00 0.000000e+00  0.000000e+00 0.000000e+00 0.000000e+00  0.000000e+00 0.000000e+00 0.000000e+00  0.000000e+00 0.000000e+00 0.000000e+00  0.000000e+00 0.000000e+00 0.000000e+00  0.000000e+00 0.000000e+00 0.000000e+00  0.000000e+00 0.000000e+00 0.000000e+00  0.000000e+00 0.000000e+00 0.000000e+00  0.000000e+00 0.000000e+00 0.000000e+00  0.000000e+00 0.000000e+00 0.000000e+00  0.000000e+00 0.000000e+00 0.000000e+00  0.000000e+00 0.000000e+00 0.000000e+00  0.000000e+00 0.000000e+00 0.000000e+00  0.000000e+00 0.000000e+00 0.000000e+00  0.000000e+00 0.000000e+00 0.000000e+00  0.000000e+00 0.000000e+00 0.000000e+00  0.000000e+00 0.000000e+00 0.000000e+00  0.000000e+00 0.000000e+00 0.000000e+00  0.000000e+00 0.000000e+00 0.000000e+00  0.000000e+00 0.000000e+00 0.000000e+00  0.000000e+00 0.000000e+00 0.000000e+00  0.000000e+00 0.000000e+00 0.000000e+00  0.000000e+00 0.000000e+00 0.000000e+00  0.000000e+00 0.000000e+00 0.000000e+00  0.000000e+00 0.000000e+00 0.000000e+00  0.000000e+00 0.000000e+00 0.000000e+00  0.000000e+00 0.000000e+00 0.000000e+00  0.000000e+00 0.000000e+00 0.000000e+00  0.000000e+00 0.000000e+00 0.000000e+00  0.000000e+00 0.000000e+00 0.000000e+00  0.000000e+00 0.000000e+00 0.000000e+00  0.000000e+00 0.000000e+00 0.000000e+00  0.000000e+00 0.000000e+00 0.000000e+00  0.000000e+00 0.000000e+00 0.000000e+00  0.000000e+00 0.000000e+00 0.000000e+00  0.000000e+00 0.000000e+00 0.000000e+00  0.000000e+00 0.000000e+00 0.000000e+00  0.000000e+00 0.000000e+00 0.000000e+00  0.000000e+00 0.000000e+00 0.000000e+00  0.000000e+00 0.000000e+00 0.000000e+00  0.000000e+00 0.000000e+00 0.000000e+00  0.000000e+00 0.000000e+00 0.000000e+00  0.000000e+00 0.000000e+00 0.000000e+00  0.000000e+00 0.000000e+00 0.000000e+00  5.197648e-06 -5.197657e-06 0.000000e+00  1.858797e-05 -9.093915e-06 0.000000e+00  3.597067e-05 -1.004117e-05 0.000000e+00  5.277571e-05 -8.851908e-06 0.000000e+00  6.579500e-05 -6.215911e-06 0.000000e+00  7.278032e-05 -2.632161e-06 0.000000e+00  7.224688e-05 1.554250e-06 0.000000e+00  6.324761e-05 6.106070e-06 0.000000e+00  4.521758e-05 1.085646e-05 0.000000e+00  1.786777e-05 1.568603e-05 0.000000e+00  -1.888929e-05 2.050791e-05 0.000000e+00  -6.499189e-05 2.525796e-05 0.000000e+00  -1.202628e-04 2.988802e-05 0.000000e+00  -1.844557e-04 3.436294e-05 0.000000e+00  -2.572422e-04 3.865486e-05 0.000000e+00  -3.382405e-04 4.274263e-05 0.000000e+00  -4.270514e-04 4.661123e-05 0.000000e+00  -5.232517e-04 5.024951e-05 0.000000e+00  -6.263731e-04 5.364841e-05 0.000000e+00  -7.359282e-04 5.680147e-05 0.000000e+00  -8.514463e-04 5.970506e-05 0.000000e+00  -9.724521e-04 6.235709e-05 0.000000e+00  -1.098436e-03 6.475607e-05 0.000000e+00  -1.228884e-03 6.690177e-05 0.000000e+00  -1.363316e-03 6.879549e-05 0.000000e+00  -1.501255e-03 7.043924e-05 0.000000e+00  -1.642194e-03 7.183523e-05 0.000000e+00  -1.785630e-03 7.298643e-05 0.000000e+00  -1.931101e-03 7.389663e-05 0.000000e+00  -2.078154e-03 7.456997e-05 0.000000e+00  -2.226308e-03 7.501080e-05 0.000000e+00  -2.375089e-03 7.522394e-05 0.000000e+00  -2.524071e-03 7.521458e-05 0.000000e+00  -2.672838e-03 7.498811e-05 0.000000e+00  -2.820949e-03 7.455020e-05 0.000000e+00  -2.967971e-03 7.390683e-05 0.000000e+00  -3.113523e-03 7.306404e-05 0.000000e+00  -3.257235e-03 7.202796e-05 0.000000e+00  -3.398711e-03 7.080511e-05 0.000000e+00  -3.537572e-03 6.940224e-05 0.000000e+00  -3.673484e-03 6.782589e-05 0.000000e+00  -3.806128e-03 6.608260e-05 0.000000e+00  -3.935163e-03 6.417945e-05 0.000000e+00  -4.060263e-03 6.212368e-05 0.000000e+00  -4.181148e-03 5.992209e-05 0.000000e+00  -4.297552e-03 5.758146e-05 0.000000e+00  -4.409190e-03 5.510920e-05 0.000000e+00  -4.515795e-03 5.251286e-05 0.000000e+00  -4.617142e-03 4.979934e-05 0.000000e+00  -4.713019e-03 4.697552e-05 0.000000e+00  -4.803200e-03 4.404903e-05 0.000000e+00  -4.887480e-03 4.102756e-05 0.000000e+00  -4.965687e-03 3.791805e-05 0.000000e+00  -5.037664e-03 3.472740e-05 0.000000e+00  -5.103247e-03 3.146334e-05 0.000000e+00  -5.162290e-03 2.813364e-05 0.000000e+00  -5.214679e-03 2.474522e-05 0.000000e+00  -5.260309e-03 2.130498e-05 0.000000e+00  -5.299080e-03 1.782069e-05 0.000000e+00  -5.330906e-03 1.430015e-05 0.000000e+00  -5.355728e-03 1.075026e-05 0.000000e+00  -5.373497e-03 7.177898e-06 0.000000e+00  -5.384173e-03 3.590855e-06 0.000000e+00  -5.387734e-03 -3.059317e-09 0.000000e+00  -5.384174e-03 -3.596966e-06 0.000000e+00  -5.373499e-03 -7.183989e-06 0.000000e+00  -5.355730e-03 -1.075633e-05 0.000000e+00  -5.330909e-03 -1.430618e-05 0.000000e+00  -5.299083e-03 -1.782667e-05 0.000000e+00  -5.260313e-03 -2.131090e-05 0.000000e+00  -5.214684e-03 -2.475108e-05 0.000000e+00  -5.162295e-03 -2.813942e-05 0.000000e+00  -5.103253e-03 -3.146902e-05 0.000000e+00  -5.037670e-03 -3.473298e-05 0.000000e+00  -4.965694e-03 -3.792352e-05 0.000000e+00  -4.887488e-03 -4.103291e-05 0.000000e+00  -4.803209e-03 -4.405425e-05 0.000000e+00  -4.713028e-03 -4.698059e-05 0.000000e+00  -4.617152e-03 -4.980425e-05 0.000000e+00  -4.515805e-03 -5.251760e-05 0.000000e+00  -4.409200e-03 -5.511375e-05 0.000000e+00  -4.297563e-03 -5.758581e-05 0.000000e+00  -4.181160e-03 -5.992624e-05 0.000000e+00  -4.060275e-03 -6.212761e-05 0.000000e+00  -3.935176e-03 -6.418314e-05 0.000000e+00  -3.806141e-03 -6.608603e-05 0.000000e+00  -3.673497e-03 -6.782906e-05 0.000000e+00  -3.537585e-03 -6.940514e-05 0.000000e+00  -3.398725e-03 -7.080771e-05 0.000000e+00  -3.257248e-03 -7.203024e-05 0.000000e+00  -3.113536e-03 -7.306599e-05 0.000000e+00  -2.967984e-03 -7.390842e-05 0.000000e+00  -2.820962e-03 -7.455142e-05 0.000000e+00  -2.672851e-03 -7.498893e-05 0.000000e+00  -2.524083e-03 -7.521497e-05 0.000000e+00  -2.375101e-03 -7.522388e-05 0.000000e+00  -2.226320e-03 -7.501026e-05 0.000000e+00  -2.078165e-03 -7.456891e-05 0.000000e+00  -1.931111e-03 -7.389502e-05 0.000000e+00  -1.785640e-03 -7.298423e-05 0.000000e+00  -1.642204e-03 -7.183240e-05 0.000000e+00  -1.501264e-03 -7.043572e-05 0.000000e+00  -1.363324e-03 -6.879125e-05 0.000000e+00  -1.228891e-03 -6.689675e-05 0.000000e+00  -1.098442e-03 -6.475021e-05 0.000000e+00  -9.724576e-04 -6.235034e-05 0.000000e+00  -8.514510e-04 -5.969736e-05 0.000000e+00  -7.359323e-04 -5.679273e-05 0.000000e+00  -6.263764e-04 -5.363857e-05 0.000000e+00  -5.232544e-04 -5.023849e-05 0.000000e+00  -4.270534e-04 -4.659894e-05 0.000000e+00  -3.382418e-04 -4.272897e-05 0.000000e+00  -2.572428e-04 -3.863976e-05 0.000000e+00  -1.844557e-04 -3.434630e-05 0.000000e+00  -1.202620e-04 -2.986974e-05 0.000000e+00  -6.499023e-05 -2.523798e-05 0.000000e+00  -1.888931e-05 -2.048651e-05 0.000000e+00  1.787158e-05 -1.566265e-05 0.000000e+00  4.522427e-05 -1.083128e-05 0.000000e+00  6.325459e-05 -6.080192e-06 0.000000e+00  7.225566e-05 -1.528674e-06 0.000000e+00  7.279161e-05 2.655972e-06 0.000000e+00  6.580809e-05 6.233699e-06 0.000000e+00  5.279073e-05 8.856455e-06 0.000000e+00  3.597026e-05 1.001539e-05 0.000000e+00  1.863983e-05 9.010972e-06 0.000000e+00  5.096212e-06 5.096604e-06 0.000000e+00  0.000000e+00 0.000000e+00 0.000000e+00  0.000000e+00 0.000000e+00 0.000000e+00  9.099419e-06 -1.859132e-05 0.000000e+00  2.943007e-05 -2.941489e-05 0.000000e+00  5.338290e-05 -3.149493e-05 0.000000e+00  7.477638e-05 -2.661522e-05 0.000000e+00  8.878295e-05 -1.672600e-05 0.000000e+00  9.175996e-05 -3.390933e-06 0.000000e+00  8.112565e-05 1.223457e-05 0.000000e+00  5.512230e-05 2.930897e-05 0.000000e+00  1.263093e-05 4.721728e-05 0.000000e+00  -4.698038e-05 6.550611e-05 0.000000e+00  -1.239718e-04 8.383760e-05 0.000000e+00  -2.183183e-04 1.019575e-04 0.000000e+00  -3.297677e-04 1.196715e-04 0.000000e+00  -4.579285e-04 1.368357e-04 0.000000e+00  -6.022409e-04 1.533344e-04 0.000000e+00  -7.620338e-04 1.690789e-04 0.000000e+00  -9.365956e-04 1.840047e-04 0.000000e+00  -1.125160e-03 1.980631e-04 0.000000e+00  -1.326867e-03 2.112140e-04 0.000000e+00  -1.540813e-03 2.234284e-04 0.000000e+00  -1.766123e-03 2.346885e-04 0.000000e+00  -2.001907e-03 2.449829e-04 0.000000e+00  -2.247204e-03 2.543032e-04 0.000000e+00  -2.501043e-03 2.626459e-04 0.000000e+00  -2.762511e-03 2.700143e-04 0.000000e+00  -3.030705e-03 2.764140e-04 0.000000e+00  -3.304655e-03 2.818524e-04 0.000000e+00  -3.583398e-03 2.863394e-04 0.000000e+00  -3.866050e-03 2.898887e-04 0.000000e+00  -4.151743e-03 2.925153e-04 0.000000e+00  -4.439550e-03 2.942354e-04 0.000000e+00  -4.728559e-03 2.950668e-04 0.000000e+00  -5.017949e-03 2.950292e-04 0.000000e+00  -5.306919e-03 2.941429e-04 0.000000e+00  -5.594613e-03 2.924296e-04 0.000000e+00  -5.880196e-03 2.899122e-04 0.000000e+00  -6.162931e-03 2.866139e-04 0.000000e+00  -6.442099e-03 2.825583e-04 0.000000e+00  -6.716935e-03 2.777706e-04 0.000000e+00  -6.986701e-03 2.722769e-04 0.000000e+00  -7.250750e-03 2.661026e-04 0.000000e+00  -7.508463e-03 2.592731e-04 0.000000e+00  -7.759175e-03 2.518160e-04 0.000000e+00  -8.002253e-03 2.437595e-04 0.000000e+00  -8.237154e-03 2.351301e-04 0.000000e+00  -8.463358e-03 2.259543e-04 0.000000e+00  -8.680311e-03 2.162612e-04 0.000000e+00  -8.887494e-03 2.060802e-04 0.000000e+00  -9.084467e-03 1.954384e-04 0.000000e+00  -9.270816e-03 1.843628e-04 0.000000e+00  -9.446103e-03 1.728832e-04 0.000000e+00  -9.609924e-03 1.610298e-04 0.000000e+00  -9.761949e-03 1.488300e-04 0.000000e+00  -9.901866e-03 1.363108e-04 0.000000e+00  -1.002936e-02 1.235026e-04 0.000000e+00  -1.014414e-02 1.104360e-04 0.000000e+00  -1.024599e-02 9.713816e-05 0.000000e+00  -1.033470e-02 8.363624e-05 0.000000e+00  -1.041008e-02 6.996085e-05 0.000000e+00  -1.047196e-02 5.614266e-05 0.000000e+00  -1.052022e-02 4.220885e-05 0.000000e+00  -1.055477e-02 2.818651e-05 0.000000e+00  -1.057552e-02 1.410635e-05 0.000000e+00  -1.058244e-02 -9.202723e-10 0.000000e+00  -1.057552e-02 -1.410818e-05 0.000000e+00  -1.055477e-02 -2.818834e-05 0.000000e+00  -1.052022e-02 -4.221067e-05 0.000000e+00  -1.047196e-02 -5.614446e-05 0.000000e+00  -1.041009e-02 -6.996263e-05 0.000000e+00  -1.033471e-02 -8.363800e-05 0.000000e+00  -1.024600e-02 -9.713989e-05 0.000000e+00  -1.014415e-02 -1.104377e-04 0.000000e+00  -1.002937e-02 -1.235043e-04 0.000000e+00  -9.901878e-03 -1.363124e-04 0.000000e+00  -9.761961e-03 -1.488316e-04 0.000000e+00  -9.609938e-03 -1.610314e-04 0.000000e+00  -9.446118e-03 -1.728847e-04 0.000000e+00  -9.270832e-03 -1.843642e-04 0.000000e+00  -9.084484e-03 -1.954398e-04 0.000000e+00  -8.887511e-03 -2.060816e-04 0.000000e+00  -8.680330e-03 -2.162625e-04 0.000000e+00  -8.463377e-03 -2.259556e-04 0.000000e+00  -8.237175e-03 -2.351313e-04 0.000000e+00  -8.002274e-03 -2.437606e-04 0.000000e+00  -7.759196e-03 -2.518171e-04 0.000000e+00  -7.508485e-03 -2.592741e-04 0.000000e+00  -7.250773e-03 -2.661036e-04 0.000000e+00  -6.986723e-03 -2.722778e-04 0.000000e+00  -6.716958e-03 -2.777715e-04 0.000000e+00  -6.442121e-03 -2.825592e-04 0.000000e+00  -6.162953e-03 -2.866148e-04 0.000000e+00  -5.880218e-03 -2.899130e-04 0.000000e+00  -5.594635e-03 -2.924303e-04 0.000000e+00  -5.306940e-03 -2.941436e-04 0.000000e+00  -5.017970e-03 -2.950297e-04 0.000000e+00  -4.728579e-03 -2.950672e-04 0.000000e+00  -4.439569e-03 -2.942357e-04 0.000000e+00  -4.151760e-03 -2.925155e-04 0.000000e+00  -3.866066e-03 -2.898886e-04 0.000000e+00  -3.583413e-03 -2.863391e-04 0.000000e+00  -3.304669e-03 -2.818518e-04 0.000000e+00  -3.030717e-03 -2.764132e-04 0.000000e+00  -2.762522e-03 -2.700131e-04 0.000000e+00  -2.501052e-03 -2.626444e-04 0.000000e+00  -2.247212e-03 -2.543012e-04 0.000000e+00  -2.001913e-03 -2.449806e-04 0.000000e+00  -1.766128e-03 -2.346857e-04 0.000000e+00  -1.540817e-03 -2.234251e-04 0.000000e+00  -1.326869e-03 -2.112102e-04 0.000000e+00  -1.125161e-03 -1.980586e-04 0.000000e+00  -9.365954e-04 -1.839997e-04 0.000000e+00  -7.620326e-04 -1.690733e-04 0.000000e+00  -6.022387e-04 -1.533284e-04 0.000000e+00  -4.579254e-04 -1.368292e-04 0.000000e+00  -3.297637e-04 -1.196647e-04 0.000000e+00  -2.183135e-04 -1.019504e-04 0.000000e+00  -1.239717e-04 -8.383171e-05 0.000000e+00  -4.697407e-05 -6.549940e-05 0.000000e+00  1.264119e-05 -4.721026e-05 0.000000e+00  5.512976e-05 -2.930467e-05 0.000000e+00  8.113202e-05 -1.223384e-05 0.000000e+00  9.176682e-05 3.389112e-06 0.000000e+00  8.878656e-05 1.672036e-05 0.000000e+00  7.477910e-05 2.660476e-05 0.000000e+00  5.337642e-05 3.149039e-05 0.000000e+00  2.944241e-05 2.942781e-05 0.000000e+00  9.015225e-06 1.864250e-05 0.000000e+00  0.000000e+00 0.000000e+00 0.000000e+00  0.000000e+00 0.000000e+00 0.000000e+00  1.007260e-05 -3.600589e-05 0.000000e+00  3.160290e-05 -5.340074e-05 0.000000e+00  5.469370e-05 -5.453636e-05 0.000000e+00  7.212544e-05 -4.275058e-05 0.000000e+00  7.824282e-05 -2.131370e-05 0.000000e+00  6.866562e-05 7.035721e-06 0.000000e+00  4.013537e-05 4.015123e-05 0.000000e+00  -9.670581e-06 7.639162e-05 0.000000e+00  -8.230456e-05 1.145115e-04 0.000000e+00  -1.787007e-04 1.535646e-04 0.000000e+00  -2.993004e-04 1.928282e-04 0.000000e+00  -4.441534e-04 2.317472e-04 0.000000e+00  -6.129874e-04 2.698906e-04 0.000000e+00  -8.053297e-04 3.069327e-04 0.000000e+00  -1.020457e-03 3.426100e-04 0.000000e+00  -1.257477e-03 3.767164e-04 0.000000e+00  -1.515435e-03 4.091004e-04 0.000000e+00  -1.793287e-03 4.396449e-04 0.000000e+00  -2.089844e-03 4.682535e-04 0.000000e+00  -2.403851e-03 4.948542e-04 0.000000e+00  -2.734082e-03 5.194009e-04 0.000000e+00  -3.079289e-03 5.418622e-04 0.000000e+00  -3.438113e-03 5.622138e-04 0.000000e+00  -3.809174e-03 5.804434e-04 0.000000e+00  -4.191177e-03 5.965534e-04 0.000000e+00  -4.582830e-03 6.105527e-04 0.000000e+00  -4.982747e-03 6.224535e-04 0.000000e+00  -5.389544e-03 6.322749e-04 0.000000e+00  -5.801955e-03 6.400443e-04 0.000000e+00  -6.218729e-03 6.457924e-04 0.000000e+00  -6.638530e-03 6.495522e-04 0.000000e+00  -7.060040e-03 6.513615e-04 0.000000e+00  -7.482073e-03 6.512619e-04 0.000000e+00  -7.903469e-03 6.492967e-04 0.000000e+00  -8.322990e-03 6.455121e-04 0.000000e+00  -8.739423e-03 6.399577e-04 0.000000e+00  -9.151698e-03 6.326834e-04 0.000000e+00  -9.558774e-03 6.237404e-04 0.000000e+00  -9.959536e-03 6.131834e-04 0.000000e+00  -1.035291e-02 6.010694e-04 0.000000e+00  -1.073796e-02 5.874537e-04 0.000000e+00  -1.111377e-02 5.723919e-04 0.000000e+00  -1.147939e-02 5.559444e-04 0.000000e+00  -1.183389e-02 5.381730e-04 0.000000e+00  -1.217647e-02 5.191359e-04 0.000000e+00  -1.250638e-02 4.988913e-04 0.000000e+00  -1.282280e-02 4.775030e-04 0.000000e+00  -1.312499e-02 4.550360e-04 0.000000e+00  -1.341230e-02 4.315499e-04 0.000000e+00  -1.368411e-02 4.071042e-04 0.000000e+00  -1.393980e-02 3.817647e-04 0.000000e+00  -1.417877e-02 3.555982e-04 0.000000e+00  -1.440054e-02 3.286649e-04 0.000000e+00  -1.460466e-02 3.010246e-04 0.000000e+00  -1.479065e-02 2.727446e-04 0.000000e+00  -1.495811e-02 2.438923e-04 0.000000e+00  -1.510670e-02 2.145281e-04 0.000000e+00  -1.523612e-02 1.847119e-04 0.000000e+00  -1.534609e-02 1.545116e-04 0.000000e+00  -1.543637e-02 1.239950e-04 0.000000e+00  -1.550678e-02 9.322221e-05 0.000000e+00  -1.555719e-02 6.225341e-05 0.000000e+00  -1.558747e-02 3.115650e-05 0.000000e+00  -1.559757e-02 -4.654011e-10 0.000000e+00  -1.558747e-02 -3.115743e-05 0.000000e+00  -1.555719e-02 -6.225433e-05 0.000000e+00  -1.550679e-02 -9.322313e-05 0.000000e+00  -1.543638e-02 -1.239959e-04 0.000000e+00  -1.534610e-02 -1.545125e-04 0.000000e+00  -1.523613e-02 -1.847128e-04 0.000000e+00  -1.510671e-02 -2.145289e-04 0.000000e+00  -1.495812e-02 -2.438932e-04 0.000000e+00  -1.479067e-02 -2.727454e-04 0.000000e+00  -1.460468e-02 -3.010254e-04 0.000000e+00  -1.440056e-02 -3.286656e-04 0.000000e+00  -1.417879e-02 -3.555990e-04 0.000000e+00  -1.393982e-02 -3.817654e-04 0.000000e+00  -1.368414e-02 -4.071049e-04 0.000000e+00  -1.341232e-02 -4.315506e-04 0.000000e+00  -1.312502e-02 -4.550367e-04 0.000000e+00  -1.282283e-02 -4.775037e-04 0.000000e+00  -1.250640e-02 -4.988919e-04 0.000000e+00  -1.217650e-02 -5.191365e-04 0.000000e+00  -1.183392e-02 -5.381737e-04 0.000000e+00  -1.147942e-02 -5.559451e-04 0.000000e+00  -1.111381e-02 -5.723927e-04 0.000000e+00  -1.073799e-02 -5.874546e-04 0.000000e+00  -1.035294e-02 -6.010703e-04 0.000000e+00  -9.959568e-03 -6.131844e-04 0.000000e+00  -9.558806e-03 -6.237415e-04 0.000000e+00  -9.151730e-03 -6.326846e-04 0.000000e+00  -8.739454e-03 -6.399589e-04 0.000000e+00  -8.323020e-03 -6.455135e-04 0.000000e+00  -7.903499e-03 -6.492981e-04 0.000000e+00  -7.482101e-03 -6.512633e-04 0.000000e+00  -7.060067e-03 -6.513630e-04 0.000000e+00  -6.638555e-03 -6.495536e-04 0.000000e+00  -6.218753e-03 -6.457937e-