<?xml version="1.0"?>
<VTKFile type="UnstructuredGrid"  version="0.1"  >
<UnstructuredGrid>
<Piece  NumberOfPoints="16641" NumberOfCells="32768">
<Points>
<DataArray  type="Float32"  NumberOfComponents="3"  format="ascii">0 0 0  0.0078125 0 0  0.015625 0 0  0.0234375 0 0  0.03125 0 0  0.0390625 0 0  0.046875 0 0  0.0546875 0 0  0.0625 0 0  0.0703125 0 0  0.078125 0 0  0.0859375 0 0  0.09375 0 0  0.101562 0 0  0.109375 0 0  0.117188 0 0  0.125 0 0  0.132812 0 0  0.140625 0 0  0.148438 0 0  0.15625 0 0  0.164062 0 0  0.171875 0 0  0.179688 0 0  0.1875 0 0  0.195312 0 0  0.203125 0 0  0.210938 0 0  0.21875 0 0  0.226562 0 0  0.234375 0 0  0.242188 0 0  0.25 0 0  0.257812 0 0  0.265625 0 0  0.273438 0 0  0.28125 0 0  0.289062 0 0  0.296875 0 0  0.304688 0 0  0.3125 0 0  0.320312 0 0  0.328125 0 0  0.335938 0 0  0.34375 0 0  0.351562 0 0  0.359375 0 0  0.367188 0 0  0.375 0 0  0.382812 0 0  0.390625 0 0  0.398438 0 0  0.40625 0 0  0.414062 0 0  0.421875 0 0  0.429688 0 0  0.4375 0 0  0.445312 0 0  0.453125 0 0  0.460938 0 0  0.46875 0 0  0.476562 0 0  0.484375 0 0  0.492188 0 0  0.5 0 0  0.507812 0 0  0.515625 0 0  0.523438 0 0  0.53125 0 0  0.539062 0 0  0.546875 0 0  0.554688 0 0  0.5625 0 0  0.570312 0 0  0.578125 0 0  0.585938 0 0  0.59375 0 0  0.601562 0 0  0.609375 0 0  0.617188 0 0  0.625 0 0  0.632812 0 0  0.640625 0 0  0.648438 0 0  0.65625 0 0  0.664062 0 0  0.671875 0 0  0.679688 0 0  0.6875 0 0  0.695312 0 0  0.703125 0 0  0.710938 0 0  0.71875 0 0  0.726562 0 0  0.734375 0 0  0.742188 0 0  0.75 0 0  0.757812 0 0  0.765625 0 0  0.773438 0 0  0.78125 0 0  0.789062 0 0  0.796875 0 0  0.804688 0 0  0.8125 0 0  0.820312 0 0  0.828125 0 0  0.835938 0 0  0.84375 0 0  0.851562 0 0  0.859375 0 0  0.867188 0 0  0.875 0 0  0.882812 0 0  0.890625 0 0  0.898438 0 0  0.90625 0 0  0.914062 0 0  0.921875 0 0  0.929688 0 0  0.9375 0 0  0.945312 0 0  0.953125 0 0  0.960938 0 0  0.96875 0 0  0.976562 0 0  0.984375 0 0  0.992188 0 0  1 0 0  0 0.0078125 0  0.0078125 0.0078125 0  0.015625 0.0078125 0  0.0234375 0.0078125 0  0.03125 0.0078125 0  0.0390625 0.0078125 0  0.046875 0.0078125 0  0.0546875 0.0078125 0  0.0625 0.0078125 0  0.0703125 0.0078125 0  0.078125 0.0078125 0  0.0859375 0.0078125 0  0.09375 0.0078125 0  0.101562 0.0078125 0  0.109375 0.0078125 0  0.117188 0.0078125 0  0.125 0.0078125 0  0.132812 0.0078125 0  0.140625 0.0078125 0  0.148438 0.0078125 0  0.15625 0.0078125 0  0.164062 0.0078125 0  0.171875 0.0078125 0  0.179688 0.0078125 0  0.1875 0.0078125 0  0.195312 0.0078125 0  0.203125 0.0078125 0  0.210938 0.0078125 0  0.21875 0.0078125 0  0.226562 0.0078125 0  0.234375 0.0078125 0  0.242188 0.0078125 0  0.25 0.0078125 0  0.257812 0.0078125 0  0.265625 0.0078125 0  0.273438 0.0078125 0  0.28125 0.0078125 0  0.289062 0.0078125 0  0.296875 0.0078125 0  0.304688 0.0078125 0  0.3125 0.0078125 0  0.320312 0.0078125 0  0.328125 0.0078125 0  0.335938 0.0078125 0  0.34375 0.0078125 0  0.351562 0.0078125 0  0.359375 0.0078125 0  0.367188 0.0078125 0  0.375 0.0078125 0  0.382812 0.0078125 0  0.390625 0.0078125 0  0.398438 0.0078125 0  0.40625 0.0078125 0  0.414062 0.0078125 0  0.421875 0.0078125 0  0.429688 0.0078125 0  0.4375 0.0078125 0  0.445312 0.0078125 0  0.453125 0.0078125 0  0.460938 0.0078125 0  0.46875 0.0078125 0  0.476562 0.0078125 0  0.484375 0.0078125 0  0.492188 0.0078125 0  0.5 0.0078125 0  0.507812 0.0078125 0  0.515625 0.0078125 0  0.523438 0.0078125 0  0.53125 0.0078125 0  0.539062 0.0078125 0  0.546875 0.0078125 0  0.554688 0.0078125 0  0.5625 0.0078125 0  0.570312 0.0078125 0  0.578125 0.0078125 0  0.585938 0.0078125 0  0.59375 0.0078125 0  0.601562 0.0078125 0  0.609375 0.0078125 0  0.617188 0.0078125 0  0.625 0.0078125 0  0.632812 0.0078125 0  0.640625 0.0078125 0  0.648438 0.0078125 0  0.65625 0.0078125 0  0.664062 0.0078125 0  0.671875 0.0078125 0  0.679688 0.0078125 0  0.6875 0.0078125 0  0.695312 0.0078125 0  0.703125 0.0078125 0  0.710938 0.0078125 0  0.71875 0.0078125 0  0.726562 0.0078125 0  0.734375 0.0078125 0  0.742188 0.0078125 0  0.75 0.0078125 0  0.757812 0.0078125 0  0.765625 0.0078125 0  0.773438 0.0078125 0  0.78125 0.0078125 0  0.789062 0.0078125 0  0.796875 0.0078125 0  0.804688 0.0078125 0  0.8125 0.0078125 0  0.820312 0.0078125 0  0.828125 0.0078125 0  0.835938 0.0078125 0  0.84375 0.0078125 0  0.851562 0.0078125 0  0.859375 0.0078125 0  0.867188 0.0078125 0  0.875 0.0078125 0  0.882812 0.0078125 0  0.890625 0.0078125 0  0.898438 0.0078125 0  0.90625 0.0078125 0  0.914062 0.0078125 0  0.921875 0.0078125 0  0.929688 0.0078125 0  0.9375 0.0078125 0  0.945312 0.0078125 0  0.953125 0.0078125 0  0.960938 0.0078125 0  0.96875 0.0078125 0  0.976562 0.0078125 0  0.984375 0.0078125 0  0.992188 0.0078125 0  1 0.0078125 0  0 0.015625 0  0.0078125 0.015625 0  0.015625 0.015625 0  0.0234375 0.015625 0  0.03125 0.015625 0  0.0390625 0.015625 0  0.046875 0.015625 0  0.0546875 0.015625 0  0.0625 0.015625 0  0.0703125 0.015625 0  0.078125 0.015625 0  0.0859375 0.015625 0  0.09375 0.015625 0  0.101562 0.015625 0  0.109375 0.015625 0  0.117188 0.015625 0  0.125 0.015625 0  0.132812 0.015625 0  0.140625 0.015625 0  0.148438 0.015625 0  0.15625 0.015625 0  0.164062 0.015625 0  0.171875 0.015625 0  0.179688 0.015625 0  0.1875 0.015625 0  0.195312 0.015625 0  0.203125 0.015625 0  0.210938 0.015625 0  0.21875 0.015625 0  0.226562 0.015625 0  0.234375 0.015625 0  0.242188 0.015625 0  0.25 0.015625 0  0.257812 0.015625 0  0.265625 0.015625 0  0.273438 0.015625 0  0.28125 0.015625 0  0.289062 0.015625 0  0.296875 0.015625 0  0.304688 0.015625 0  0.3125 0.015625 0  0.320312 0.015625 0  0.328125 0.015625 0  0.335938 0.015625 0  0.34375 0.015625 0  0.351562 0.015625 0  0.359375 0.015625 0  0.367188 0.015625 0  0.375 0.015625 0  0.382812 0.015625 0  0.390625 0.015625 0  0.398438 0.015625 0  0.40625 0.015625 0  0.414062 0.015625 0  0.421875 0.015625 0  0.429688 0.015625 0  0.4375 0.015625 0  0.445312 0.015625 0  0.453125 0.015625 0  0.460938 0.015625 0  0.46875 0.015625 0  0.476562 0.015625 0  0.484375 0.015625 0  0.492188 0.015625 0  0.5 0.015625 0  0.507812 0.015625 0  0.515625 0.015625 0  0.523438 0.015625 0  0.53125 0.015625 0  0.539062 0.015625 0  0.546875 0.015625 0  0.554688 0.015625 0  0.5625 0.015625 0  0.570312 0.015625 0  0.578125 0.015625 0  0.585938 0.015625 0  0.59375 0.015625 0  0.601562 0.015625 0  0.609375 0.015625 0  0.617188 0.015625 0  0.625 0.015625 0  0.632812 0.015625 0  0.640625 0.015625 0  0.648438 0.015625 0  0.65625 0.015625 0  0.664062 0.015625 0  0.671875 0.015625 0  0.679688 0.015625 0  0.6875 0.015625 0  0.695312 0.015625 0  0.703125 0.015625 0  0.710938 0.015625 0  0.71875 0.015625 0  0.726562 0.015625 0  0.734375 0.015625 0  0.742188 0.015625 0  0.75 0.015625 0  0.757812 0.015625 0  0.765625 0.015625 0  0.773438 0.015625 0  0.78125 0.015625 0  0.789062 0.015625 0  0.796875 0.015625 0  0.804688 0.015625 0  0.8125 0.015625 0  0.820312 0.015625 0  0.828125 0.015625 0  0.835938 0.015625 0  0.84375 0.015625 0  0.851562 0.015625 0  0.859375 0.015625 0  0.867188 0.015625 0  0.875 0.015625 0  0.882812 0.015625 0  0.890625 0.015625 0  0.898438 0.015625 0  0.90625 0.015625 0  0.914062 0.015625 0  0.921875 0.015625 0  0.929688 0.015625 0  0.9375 0.015625 0  0.945312 0.015625 0  0.953125 0.015625 0  0.960938 0.015625 0  0.96875 0.015625 0  0.976562 0.015625 0  0.984375 0.015625 0  0.992188 0.015625 0  1 0.015625 0  0 0.0234375 0  0.0078125 0.0234375 0  0.015625 0.0234375 0  0.0234375 0.0234375 0  0.03125 0.0234375 0  0.0390625 0.0234375 0  0.046875 0.0234375 0  0.0546875 0.0234375 0  0.0625 0.0234375 0  0.0703125 0.0234375 0  0.078125 0.0234375 0  0.0859375 0.0234375 0  0.09375 0.0234375 0  0.101562 0.0234375 0  0.109375 0.0234375 0  0.117188 0.0234375 0  0.125 0.0234375 0  0.132812 0.0234375 0  0.140625 0.0234375 0  0.148438 0.0234375 0  0.15625 0.0234375 0  0.164062 0.0234375 0  0.171875 0.0234375 0  0.179688 0.0234375 0  0.1875 0.0234375 0  0.195312 0.0234375 0  0.203125 0.0234375 0  0.210938 0.0234375 0  0.21875 0.0234375 0  0.226562 0.0234375 0  0.234375 0.0234375 0  0.242188 0.0234375 0  0.25 0.0234375 0  0.257812 0.0234375 0  0.265625 0.0234375 0  0.273438 0.0234375 0  0.28125 0.0234375 0  0.289062 0.0234375 0  0.296875 0.0234375 0  0.304688 0.0234375 0  0.3125 0.0234375 0  0.320312 0.0234375 0  0.328125 0.0234375 0  0.335938 0.0234375 0  0.34375 0.0234375 0  0.351562 0.0234375 0  0.359375 0.0234375 0  0.367188 0.0234375 0  0.375 0.0234375 0  0.382812 0.0234375 0  0.390625 0.0234375 0  0.398438 0.0234375 0  0.40625 0.0234375 0  0.414062 0.0234375 0  0.421875 0.0234375 0  0.429688 0.0234375 0  0.4375 0.0234375 0  0.445312 0.0234375 0  0.453125 0.0234375 0  0.460938 0.0234375 0  0.46875 0.0234375 0  0.476562 0.0234375 0  0.484375 0.0234375 0  0.492188 0.0234375 0  0.5 0.0234375 0  0.507812 0.0234375 0  0.515625 0.0234375 0  0.523438 0.0234375 0  0.53125 0.0234375 0  0.539062 0.0234375 0  0.546875 0.0234375 0  0.554688 0.0234375 0  0.5625 0.0234375 0  0.570312 0.0234375 0  0.578125 0.0234375 0  0.585938 0.0234375 0  0.59375 0.0234375 0  0.601562 0.0234375 0  0.609375 0.0234375 0  0.617188 0.0234375 0  0.625 0.0234375 0  0.632812 0.0234375 0  0.640625 0.0234375 0  0.648438 0.0234375 0  0.65625 0.0234375 0  0.664062 0.0234375 0  0.671875 0.0234375 0  0.679688 0.0234375 0  0.6875 0.0234375 0  0.695312 0.0234375 0  0.703125 0.0234375 0  0.710938 0.0234375 0  0.71875 0.0234375 0  0.726562 0.0234375 0  0.734375 0.0234375 0  0.742188 0.0234375 0  0.75 0.0234375 0  0.757812 0.0234375 0  0.765625 0.0234375 0  0.773438 0.0234375 0  0.78125 0.0234375 0  0.789062 0.0234375 0  0.796875 0.0234375 0  0.804688 0.0234375 0  0.8125 0.0234375 0  0.820312 0.0234375 0  0.828125 0.0234375 0  0.835938 0.0234375 0  0.84375 0.0234375 0  0.851562 0.0234375 0  0.859375 0.0234375 0  0.867188 0.0234375 0  0.875 0.0234375 0  0.882812 0.0234375 0  0.890625 0.0234375 0  0.898438 0.0234375 0  0.90625 0.0234375 0  0.914062 0.0234375 0  0.921875 0.0234375 0  0.929688 0.0234375 0  0.9375 0.0234375 0  0.945312 0.0234
[...]
<PointData  Vectors="u"> 
<DataArray  type="Float32"  Name="u"  NumberOfComponents="3" format="ascii">0.000000e+00 0.000000e+00 0.000000e+00  0.000000e+00 0.000000e+00 0.000000e+00  0.000000e+00 0.000000e+00 0.000000e+00  0.000000e+00 0.000000e+00 0.000000e+00  0.000000e+00 0.000000e+00 0.000000e+00  0.000000e+00 0.000000e+00 0.000000e+00  0.000000e+00 0.000000e+00 0.000000e+00  0.000000e+00 0.000000e+00 0.000000e+00  0.000000e+00 0.000000e+00 0.000000e+00  0.000000e+00 0.000000e+00 0.000000e+00  0.000000e+00 0.000000e+00 0.000000e+00  0.000000e+00 0.000000e+00 0.000000e+00  0.000000e+00 0.000000e+00 0.000000e+00  0.000000e+00 0.000000e+00 0.000000e+00  0.000000e+00 0.000000e+00 0.000000e+00  0.000000e+00 0.000000e+00 0.000000e+00  0.000000e+00 0.000000e+00 0.000000e+00  0.000000e+00 0.000000e+00 0.000000e+00  0.000000e+00 0.000000e+00 0.000000e+00  0.000000e+00 0.000000e+00 0.000000e+00  0.000000e+00 0.000000e+00 0.000000e+00  0.000000e+00 0.000000e+00 0.000000e+00  0.000000e+00 0.000000e+00 0.000000e+00  0.000000e+00 0.000000e+00 0.000000e+00  0.000000e+00 0.000000e+00 0.000000e+00  0.000000e+00 0.000000e+00 0.000000e+00  0.000000e+00 0.000000e+00 0.000000e+00  0.000000e+00 0.000000e+00 0.000000e+00  0.000000e+00 0.000000e+00 0.000000e+00  0.000000e+00 0.000000e+00 0.000000e+00  0.000000e+00 0.000000e+00 0.000000e+00  0.000000e+00 0.000000e+00 0.000000e+00  0.000000e+00 0.000000e+00 0.000000e+00  0.000000e+00 0.000000e+00 0.000000e+00  0.000000e+00 0.000000e+00 0.000000e+00  0.000000e+00 0.000000e+00 0.000000e+00  0.000000e+00 0.000000e+00 0.000000e+00  0.000000e+00 0.000000e+00 0.000000e+00  0.000000e+00 0.000000e+00 0.000000e+00  0.000000e+00 0.000000e+00 0.000000e+00  0.000000e+00 0.000000e+00 0.000000e+00  0.000000e+00 0.000000e+00 0.000000e+00  0.000000e+00 0.000000e+00 0.000000e+00  0.000000e+00 0.000000e+00 0.000000e+00  0.000000e+00 0.000000e+00 0.000000e+00  0.000000e+00 0.000000e+00 0.000000e+00  0.000000e+00 0.000000e+00 0.000000e+00  0.000000e+00 0.000000e+00 0.000000e+00  0.000000e+00 0.000000e+00 0.000000e+00  0.000000e+00 0.000000e+00 0.000000e+00  0.000000e+00 0.000000e+00 0.000000e+00  0.000000e+00 0.000000e+00 0.000000e+00  0.000000e+00 0.000000e+00 0.000000e+00  0.000000e+00 0.000000e+00 0.000000e+00  0.000000e+00 0.000000e+00 0.000000e+00  0.000000e+00 0.000000e+00 0.000000e+00  0.000000e+00 0.000000e+00 0.000000e+00  0.000000e+00 0.000000e+00 0.000000e+00  0.000000e+00 0.000000e+00 0.000000e+00  0.000000e+00 0.000000e+00 0.000000e+00  0.000000e+00 0.000000e+00 0.000000e+00  0.000000e+00 0.000000e+00 0.000000e+00  0.000000e+00 0.000000e+00 0.000000e+00  0.000000e+00 0.000000e+00 0.000000e+00  0.000000e+00 0.000000e+00 0.000000e+00  0.000000e+00 0.000000e+00 0.000000e+00  0.000000e+00 0.000000e+00 0.000000e+00  0.000000e+00 0.000000e+00 0.000000e+00  0.000000e+00 0.000000e+00 0.000000e+00  0.000000e+00 0.000000e+00 0.000000e+00  0.000000e+00 0.000000e+00 0.000000e+00  0.000000e+00 0.000000e+00 0.000000e+00  0.000000e+00 0.000000e+00 0.000000e+00  0.000000e+00 0.000000e+00 0.000000e+00  0.000000e+00 0.000000e+00 0.000000e+00  0.000000e+00 0.000000e+00 0.000000e+00  0.000000e+00 0.000000e+00 0.000000e+00  0.000000e+00 0.000000e+00 0.000000e+00  0.000000e+00 0.000000e+00 0.000000e+00  0.000000e+00 0.000000e+00 0.000000e+00  0.000000e+00 0.000000e+00 0.000000e+00  0.000000e+00 0.000000e+00 0.000000e+00  0.000000e+00 0.000000e+00 0.000000e+00  0.000000e+00 0.000000e+00 0.000000e+00  0.000000e+00 0.000000e+00 0.000000e+00  0.000000e+00 0.000000e+00 0.000000e+00  0.000000e+00 0.000000e+00 0.000000e+00  0.000000e+00 0.000000e+00 0.000000e+00  0.000000e+00 0.000000e+00 0.000000e+00  0.000000e+00 0.000000e+00 0.000000e+00  0.000000e+00 0.000000e+00 0.000000e+00  0.000000e+00 0.000000e+00 0.000000e+00  0.000000e+00 0.000000e+00 0.000000e+00  0.000000e+00 0.000000e+00 0.000000e+00  0.000000e+00 0.000000e+00 0.000000e+00  0.000000e+00 0.000000e+00 0.000000e+00  0.000000e+00 0.000000e+00 0.000000e+00  0.000000e+00 0.000000e+00 0.000000e+00  0.000000e+00 0.000000e+00 0.000000e+00  0.000000e+00 0.000000e+00 0.000000e+00  0.000000e+00 0.000000e+00 0.000000e+00  0.000000e+00 0.000000e+00 0.000000e+00  0.000000e+00 0.000000e+00 0.000000e+00  0.000000e+00 0.000000e+00 0.000000e+00  0.000000e+00 0.000000e+00 0.000000e+00  0.000000e+00 0.000000e+00 0.000000e+00  0.000000e+00 0.000000e+00 0.000000e+00  0.000000e+00 0.000000e+00 0.000000e+00  0.000000e+00 0.000000e+00 0.000000e+00  0.000000e+00 0.000000e+00 0.000000e+00  0.000000e+00 0.000000e+00 0.000000e+00  0.000000e+00 0.000000e+00 0.000000e+00  0.000000e+00 0.000000e+00 0.000000e+00  0.000000e+00 0.000000e+00 0.000000e+00  0.000000e+00 0.000000e+00 0.000000e+00  0.000000e+00 0.000000e+00 0.000000e+00  0.000000e+00 0.000000e+00 0.000000e+00  0.000000e+00 0.000000e+00 0.000000e+00  0.000000e+00 0.000000e+00 0.000000e+00  0.000000e+00 0.000000e+00 0.000000e+00  0.000000e+00 0.000000e+00 0.000000e+00  0.000000e+00 0.000000e+00 0.000000e+00  0.000000e+00 0.000000e+00 0.000000e+00  0.000000e+00 0.000000e+00 0.000000e+00  0.000000e+00 0.000000e+00 0.000000e+00  0.000000e+00 0.000000e+00 0.000000e+00  0.000000e+00 0.000000e+00 0.000000e+00  0.000000e+00 0.000000e+00 0.000000e+00  0.000000e+00 0.000000e+00 0.000000e+00  0.000000e+00 0.000000e+00 0.000000e+00  5.197609e-06 -5.197617e-06 0.000000e+00  1.858762e-05 -9.093668e-06 0.000000e+00  3.596961e-05 -1.004071e-05 0.000000e+00  5.277358e-05 -8.851275e-06 0.000000e+00  6.579153e-05 -6.215153e-06 0.000000e+00  7.277532e-05 -2.631327e-06 0.000000e+00  7.224025e-05 1.555116e-06 0.000000e+00  6.323933e-05 6.106925e-06 0.000000e+00  4.520770e-05 1.085727e-05 0.000000e+00  1.785642e-05 1.568676e-05 0.000000e+00  -1.890193e-05 2.050853e-05 0.000000e+00  -6.500559e-05 2.525845e-05 0.000000e+00  -1.202773e-04 2.988836e-05 0.000000e+00  -1.844707e-04 3.436312e-05 0.000000e+00  -2.572573e-04 3.865487e-05 0.000000e+00  -3.382554e-04 4.274246e-05 0.000000e+00  -4.270659e-04 4.661089e-05 0.000000e+00  -5.232653e-04 5.024900e-05 0.000000e+00  -6.263855e-04 5.364774e-05 0.000000e+00  -7.359392e-04 5.680065e-05 0.000000e+00  -8.514555e-04 5.970412e-05 0.000000e+00  -9.724594e-04 6.235605e-05 0.000000e+00  -1.098441e-03 6.475496e-05 0.000000e+00  -1.228887e-03 6.690062e-05 0.000000e+00  -1.363317e-03 6.879433e-05 0.000000e+00  -1.501254e-03 7.043810e-05 0.000000e+00  -1.642191e-03 7.183415e-05 0.000000e+00  -1.785624e-03 7.298543e-05 0.000000e+00  -1.931093e-03 7.389574e-05 0.000000e+00  -2.078145e-03 7.456922e-05 0.000000e+00  -2.226297e-03 7.501022e-05 0.000000e+00  -2.375077e-03 7.522353e-05 0.000000e+00  -2.524059e-03 7.521436e-05 0.000000e+00  -2.672826e-03 7.498810e-05 0.000000e+00  -2.820937e-03 7.455039e-05 0.000000e+00  -2.967959e-03 7.390722e-05 0.000000e+00  -3.113512e-03 7.306464e-05 0.000000e+00  -3.257226e-03 7.202875e-05 0.000000e+00  -3.398704e-03 7.080609e-05 0.000000e+00  -3.537567e-03 6.940340e-05 0.000000e+00  -3.673481e-03 6.782720e-05 0.000000e+00  -3.806128e-03 6.608405e-05 0.000000e+00  -3.935166e-03 6.418103e-05 0.000000e+00  -4.060269e-03 6.212537e-05 0.000000e+00  -4.181158e-03 5.992387e-05 0.000000e+00  -4.297565e-03 5.758332e-05 0.000000e+00  -4.409207e-03 5.511113e-05 0.000000e+00  -4.515816e-03 5.251483e-05 0.000000e+00  -4.617167e-03 4.980134e-05 0.000000e+00  -4.713048e-03 4.697755e-05 0.000000e+00  -4.803233e-03 4.405106e-05 0.000000e+00  -4.887517e-03 4.102959e-05 0.000000e+00  -4.965728e-03 3.792006e-05 0.000000e+00  -5.037709e-03 3.472939e-05 0.000000e+00  -5.103295e-03 3.146530e-05 0.000000e+00  -5.162343e-03 2.813557e-05 0.000000e+00  -5.214735e-03 2.474711e-05 0.000000e+00  -5.260370e-03 2.130682e-05 0.000000e+00  -5.299144e-03 1.782248e-05 0.000000e+00  -5.330973e-03 1.430189e-05 0.000000e+00  -5.355799e-03 1.075194e-05 0.000000e+00  -5.373572e-03 7.179515e-06 0.000000e+00  -5.384251e-03 3.592408e-06 0.000000e+00  -5.387814e-03 -1.573035e-09 0.000000e+00  -5.384257e-03 -3.595547e-06 0.000000e+00  -5.373585e-03 -7.182640e-06 0.000000e+00  -5.355819e-03 -1.075505e-05 0.000000e+00  -5.331000e-03 -1.430498e-05 0.000000e+00  -5.299177e-03 -1.782554e-05 0.000000e+00  -5.260409e-03 -2.130984e-05 0.000000e+00  -5.214781e-03 -2.475008e-05 0.000000e+00  -5.162395e-03 -2.813850e-05 0.000000e+00  -5.103354e-03 -3.146818e-05 0.000000e+00  -5.037774e-03 -3.473221e-05 0.000000e+00  -4.965799e-03 -3.792282e-05 0.000000e+00  -4.887594e-03 -4.103229e-05 0.000000e+00  -4.803316e-03 -4.405371e-05 0.000000e+00  -4.713136e-03 -4.698013e-05 0.000000e+00  -4.617261e-03 -4.980388e-05 0.000000e+00  -4.515915e-03 -5.251732e-05 0.000000e+00  -4.409310e-03 -5.511358e-05 0.000000e+00  -4.297673e-03 -5.758575e-05 0.000000e+00  -4.181270e-03 -5.992630e-05 0.000000e+00  -4.060385e-03 -6.212780e-05 0.000000e+00  -3.935285e-03 -6.418347e-05 0.000000e+00  -3.806250e-03 -6.608653e-05 0.000000e+00  -3.673605e-03 -6.782973e-05 0.000000e+00  -3.537691e-03 -6.940599e-05 0.000000e+00  -3.398829e-03 -7.080876e-05 0.000000e+00  -3.257350e-03 -7.203150e-05 0.000000e+00  -3.113635e-03 -7.306746e-05 0.000000e+00  -2.968080e-03 -7.391012e-05 0.000000e+00  -2.821054e-03 -7.455334e-05 0.000000e+00  -2.672940e-03 -7.499107e-05 0.000000e+00  -2.524167e-03 -7.521733e-05 0.000000e+00  -2.375180e-03 -7.522644e-05 0.000000e+00  -2.226394e-03 -7.501300e-05 0.000000e+00  -2.078234e-03 -7.457181e-05 0.000000e+00  -1.931174e-03 -7.389805e-05 0.000000e+00  -1.785696e-03 -7.298735e-05 0.000000e+00  -1.642254e-03 -7.183559e-05 0.000000e+00  -1.501308e-03 -7.043894e-05 0.000000e+00  -1.363361e-03 -6.879445e-05 0.000000e+00  -1.228922e-03 -6.689988e-05 0.000000e+00  -1.098467e-03 -6.475325e-05 0.000000e+00  -9.724770e-04 -6.235323e-05 0.000000e+00  -8.514649e-04 -5.970007e-05 0.000000e+00  -7.359410e-04 -5.679523e-05 0.000000e+00  -6.263804e-04 -5.364083e-05 0.000000e+00  -5.232542e-04 -5.024048e-05 0.000000e+00  -4.270495e-04 -4.660065e-05 0.000000e+00  -3.382348e-04 -4.273037e-05 0.000000e+00  -2.572333e-04 -3.864085e-05 0.000000e+00  -1.844443e-04 -3.434708e-05 0.000000e+00  -1.202493e-04 -2.987022e-05 0.000000e+00  -6.497685e-05 -2.523816e-05 0.000000e+00  -1.887578e-05 -2.048641e-05 0.000000e+00  1.788474e-05 -1.566229e-05 0.000000e+00  4.523659e-05 -1.083069e-05 0.000000e+00  6.326567e-05 -6.079420e-06 0.000000e+00  7.226517e-05 -1.527758e-06 0.000000e+00  7.279933e-05 2.656976e-06 0.000000e+00  6.581390e-05 6.234723e-06 0.000000e+00  5.279466e-05 8.857418e-06 0.000000e+00  3.597251e-05 1.001620e-05 0.000000e+00  1.864078e-05 9.011511e-06 0.000000e+00  5.096406e-06 5.096797e-06 0.000000e+00  0.000000e+00 0.000000e+00 0.000000e+00  0.000000e+00 0.000000e+00 0.000000e+00  9.099173e-06 -1.859097e-05 0.000000e+00  2.942902e-05 -2.941383e-05 0.000000e+00  5.338043e-05 -3.149316e-05 0.000000e+00  7.477194e-05 -2.661286e-05 0.000000e+00  8.877610e-05 -1.672320e-05 0.000000e+00  9.175041e-05 -3.387872e-06 0.000000e+00  8.111323e-05 1.223773e-05 0.000000e+00  5.510700e-05 2.931209e-05 0.000000e+00  1.261287e-05 4.722023e-05 0.000000e+00  -4.700099e-05 6.550876e-05 0.000000e+00  -1.239946e-04 8.383985e-05 0.000000e+00  -2.183429e-04 1.019592e-04 0.000000e+00  -3.297936e-04 1.196727e-04 0.000000e+00  -4.579552e-04 1.368362e-04 0.000000e+00  -6.022677e-04 1.533343e-04 0.000000e+00  -7.620602e-04 1.690781e-04 0.000000e+00  -9.366209e-04 1.840033e-04 0.000000e+00  -1.125184e-03 1.980610e-04 0.000000e+00  -1.326888e-03 2.112114e-04 0.000000e+00  -1.540832e-03 2.234253e-04 0.000000e+00  -1.766138e-03 2.346849e-04 0.000000e+00  -2.001918e-03 2.449790e-04 0.000000e+00  -2.247212e-03 2.542989e-04 0.000000e+00  -2.501046e-03 2.626415e-04 0.000000e+00  -2.762511e-03 2.700098e-04 0.000000e+00  -3.030700e-03 2.764097e-04 0.000000e+00  -3.304646e-03 2.818482e-04 0.000000e+00  -3.583385e-03 2.863356e-04 0.000000e+00  -3.866033e-03 2.898853e-04 0.000000e+00  -4.151724e-03 2.925125e-04 0.000000e+00  -4.439528e-03 2.942332e-04 0.000000e+00  -4.728536e-03 2.950652e-04 0.000000e+00  -5.017925e-03 2.950284e-04 0.000000e+00  -5.306895e-03 2.941429e-04 0.000000e+00  -5.594589e-03 2.924304e-04 0.000000e+00  -5.880173e-03 2.899138e-04 0.000000e+00  -6.162909e-03 2.866163e-04 0.000000e+00  -6.442080e-03 2.825614e-04 0.000000e+00  -6.716920e-03 2.777744e-04 0.000000e+00  -6.986689e-03 2.722814e-04 0.000000e+00  -7.250744e-03 2.661077e-04 0.000000e+00  -7.508462e-03 2.592788e-04 0.000000e+00  -7.759180e-03 2.518222e-04 0.000000e+00  -8.002264e-03 2.437661e-04 0.000000e+00  -8.237172e-03 2.351371e-04 0.000000e+00  -8.463382e-03 2.259616e-04 0.000000e+00  -8.680343e-03 2.162688e-04 0.000000e+00  -8.887533e-03 2.060880e-04 0.000000e+00  -9.084514e-03 1.954463e-04 0.000000e+00  -9.270871e-03 1.843707e-04 0.000000e+00  -9.446166e-03 1.728912e-04 0.000000e+00  -9.609995e-03 1.610379e-04 0.000000e+00  -9.762027e-03 1.488380e-04 0.000000e+00  -9.901953e-03 1.363187e-04 0.000000e+00  -1.002945e-02 1.235105e-04 0.000000e+00  -1.014424e-02 1.104437e-04 0.000000e+00  -1.024610e-02 9.714569e-05 0.000000e+00  -1.033482e-02 8.364360e-05 0.000000e+00  -1.041020e-02 6.996801e-05 0.000000e+00  -1.047209e-02 5.614961e-05 0.000000e+00  -1.052036e-02 4.221558e-05 0.000000e+00  -1.055491e-02 2.819300e-05 0.000000e+00  -1.057567e-02 1.411259e-05 0.000000e+00  -1.058260e-02 5.068991e-09 0.000000e+00  -1.057569e-02 -1.410246e-05 0.000000e+00  -1.055494e-02 -2.818289e-05 0.000000e+00  -1.052040e-02 -4.220549e-05 0.000000e+00  -1.047214e-02 -5.613956e-05 0.000000e+00  -1.041027e-02 -6.995801e-05 0.000000e+00  -1.033490e-02 -8.363367e-05 0.000000e+00  -1.024619e-02 -9.713584e-05 0.000000e+00  -1.014435e-02 -1.104339e-04 0.000000e+00  -1.002957e-02 -1.235008e-04 0.000000e+00  -9.902082e-03 -1.363093e-04 0.000000e+00  -9.762169e-03 -1.488287e-04 0.000000e+00  -9.610148e-03 -1.610288e-04 0.000000e+00  -9.446330e-03 -1.728824e-04 0.000000e+00  -9.271046e-03 -1.843623e-04 0.000000e+00  -9.084700e-03 -1.954383e-04 0.000000e+00  -8.887729e-03 -2.060804e-04 0.000000e+00  -8.680549e-03 -2.162618e-04 0.000000e+00  -8.463597e-03 -2.259553e-04 0.000000e+00  -8.237394e-03 -2.351315e-04 0.000000e+00  -8.002493e-03 -2.437614e-04 0.000000e+00  -7.759414e-03 -2.518184e-04 0.000000e+00  -7.508701e-03 -2.592761e-04 0.000000e+00  -7.250987e-03 -2.661062e-04 0.000000e+00  -6.986934e-03 -2.722812e-04 0.000000e+00  -6.717165e-03 -2.777756e-04 0.000000e+00  -6.442324e-03 -2.825642e-04 0.000000e+00  -6.163151e-03 -2.866206e-04 0.000000e+00  -5.880410e-03 -2.899197e-04 0.000000e+00  -5.594819e-03 -2.924379e-04 0.000000e+00  -5.307117e-03 -2.941519e-04 0.000000e+00  -5.018138e-03 -2.950389e-04 0.000000e+00  -4.728737e-03 -2.950772e-04 0.000000e+00  -4.439717e-03 -2.942463e-04 0.000000e+00  -4.151898e-03 -2.925268e-04 0.000000e+00  -3.866193e-03 -2.899004e-04 0.000000e+00  -3.583528e-03 -2.863513e-04 0.000000e+00  -3.304772e-03 -2.818642e-04 0.000000e+00  -3.030808e-03 -2.764257e-04 0.000000e+00  -2.762601e-03 -2.700255e-04 0.000000e+00  -2.501119e-03 -2.626566e-04 0.000000e+00  -2.247267e-03 -2.543130e-04 0.000000e+00  -2.001957e-03 -2.449918e-04 0.000000e+00  -1.766161e-03 -2.346963e-04 0.000000e+00  -1.540840e-03 -2.234349e-04 0.000000e+00  -1.326883e-03 -2.112190e-04 0.000000e+00  -1.125167e-03 -1.980665e-04 0.000000e+00  -9.365942e-04 -1.840065e-04 0.000000e+00  -7.620252e-04 -1.690790e-04 0.000000e+00  -6.022262e-04 -1.533328e-04 0.000000e+00  -4.579090e-04 -1.368324e-04 0.000000e+00  -3.297444e-04 -1.196668e-04 0.000000e+00  -2.182924e-04 -1.019514e-04 0.000000e+00  -1.239499e-04 -8.383163e-05 0.000000e+00  -4.695252e-05 -6.549836e-05 0.000000e+00  1.266164e-05 -4.720836e-05 0.000000e+00  5.514838e-05 -2.930205e-05 0.000000e+00  8.114820e-05 -1.223068e-05 0.000000e+00  9.178014e-05 3.392610e-06 0.000000e+00  8.879679e-05 1.672395e-05 0.000000e+00  7.478624e-05 2.660817e-05 0.000000e+00  5.338075e-05 3.149328e-05 0.000000e+00  2.944446e-05 2.942986e-05 0.000000e+00  9.015762e-06 1.864345e-05 0.000000e+00  0.000000e+00 0.000000e+00 0.000000e+00  0.000000e+00 0.000000e+00 0.000000e+00  1.007214e-05 -3.600483e-05 0.000000e+00  3.160113e-05 -5.339826e-05 0.000000e+00  5.468984e-05 -5.453250e-05 0.000000e+00  7.211882e-05 -4.274558e-05 0.000000e+00  7.823292e-05 -2.130786e-05 0.000000e+00  6.865209e-05 7.042078e-06 0.000000e+00  4.011804e-05 4.015778e-05 0.000000e+00  -9.691716e-06 7.639806e-05 0.000000e+00  -8.232933e-05 1.145176e-04 0.000000e+00  -1.787288e-04 1.535700e-04 0.000000e+00  -2.993313e-04 1.928328e-04 0.000000e+00  -4.441866e-04 2.317508e-04 0.000000e+00  -6.130222e-04 2.698929e-04 0.000000e+00  -8.053653e-04 3.069338e-04 0.000000e+00  -1.020492e-03 3.426096e-04 0.000000e+00  -1.257512e-03 3.767147e-04 0.000000e+00  -1.515468e-03 4.090972e-04 0.000000e+00  -1.793317e-03 4.396404e-04 0.000000e+00  -2.089872e-03 4.682478e-04 0.000000e+00  -2.403874e-03 4.948473e-04 0.000000e+00  -2.734100e-03 5.193931e-04 0.000000e+00  -3.079302e-03 5.418536e-04 0.000000e+00  -3.438121e-03 5.622046e-04 0.000000e+00  -3.809176e-03 5.804340e-04 0.000000e+00  -4.191172e-03 5.965438e-04 0.000000e+00  -4.582820e-03 6.105433e-04 0.000000e+00  -4.982731e-03 6.224446e-04 0.000000e+00  -5.389523e-03 6.322667e-04 0.000000e+00  -5.801929e-03 6.400371e-04 0.000000e+00  -6.218699e-03 6.457863e-04 0.000000e+00  -6.638496e-03 6.495475e-04 0.000000e+00  -7.060003e-03 6.513583e-04 0.000000e+00  -7.482035e-03 6.512602e-04 0.000000e+00  -7.903431e-03 6.492967e-04 0.000000e+00  -8.322952e-03 6.455139e-04 0.000000e+00  -8.739387e-03 6.399611e-04 0.000000e+00  -9.151665e-03 6.326886e-04 0.000000e+00  -9.558745e-03 6.237472e-04 0.000000e+00  -9.959512e-03 6.131918e-04 0.000000e+00  -1.035289e-02 6.010793e-04 0.000000e+00  -1.073795e-02 5.874649e-04 0.000000e+00  -1.111377e-02 5.724044e-04 0.000000e+00  -1.147940e-02 5.559580e-04 0.000000e+00  -1.183390e-02 5.381876e-04 0.000000e+00  -1.217649e-02 5.191513e-04 0.000000e+00  -1.250641e-02 4.989074e-04 0.000000e+00  -1.282285e-02 4.775197e-04 0.000000e+00  -1.312505e-02 4.550532e-04 0.000000e+00  -1.341236e-02 4.315674e-04 0.000000e+00  -1.368419e-02 4.071219e-04 0.000000e+00  -1.393989e-02 3.817826e-04 0.000000e+00  -1.417888e-02 3.556161e-04 0.000000e+00  -1.440066e-02 3.286827e-04 0.000000e+00  -1.460478e-02 3.010423e-04 0.000000e+00  -1.479079e-02 2.727621e-04 0.000000e+00  -1.495825e-02 2.439095e-04 0.000000e+00  -1.510686e-02 2.145450e-04 0.000000e+00  -1.523629e-02 1.847285e-04 0.000000e+00  -1.534627e-02 1.545277e-04 0.000000e+00  -1.543656e-02 1.240106e-04 0.000000e+00  -1.550699e-02 9.323740e-05 0.000000e+00  -1.555740e-02 6.226808e-05 0.000000e+00  -1.558770e-02 3.117064e-05 0.000000e+00  -1.559781e-02 1.311519e-08 0.000000e+00  -1.558772e-02 -3.114442e-05 0.000000e+00  -1.555744e-02 -6.224192e-05 0.000000e+00  -1.550705e-02 -9.321132e-05 0.000000e+00  -1.543664e-02 -1.239847e-04 0.000000e+00  -1.534637e-02 -1.545019e-04 0.000000e+00  -1.523641e-02 -1.847029e-04 0.000000e+00  -1.510699e-02 -2.145196e-04 0.000000e+00  -1.495841e-02 -2.438845e-04 0.000000e+00  -1.479096e-02 -2.727374e-04 0.000000e+00  -1.460498e-02 -3.010181e-04 0.000000e+00  -1.440087e-02 -3.286590e-04 0.000000e+00  -1.417911e-02 -3.555930e-04 0.000000e+00  -1.394014e-02 -3.817603e-04 0.000000e+00  -1.368446e-02 -4.071005e-04 0.000000e+00  -1.341264e-02 -4.315470e-04 0.000000e+00  -1.312534e-02 -4.550340e-04 0.000000e+00  -1.282316e-02 -4.775020e-04 0.000000e+00  -1.250673e-02 -4.988912e-04 0.000000e+00  -1.217682e-02 -5.191369e-04 0.000000e+00  -1.183424e-02 -5.381753e-04 0.000000e+00  -1.147975e-02 -5.559481e-04 0.000000e+00  -1.111413e-02 -5.723971e-04 0.000000e+00  -1.073831e-02 -5.874604e-04 0.000000e+00  -1.035326e-02 -6.010778e-04 0.000000e+00  -9.959879e-03 -6.131936e-04 0.000000e+00  -9.559109e-03 -6.237525e-04 0.000000e+00  -9.152026e-03 -6.326974e-04 0.000000e+00  -8.739741e-03 -6.399737e-04 0.000000e+00  -8.323297e-03 -6.455301e-04 0.000000e+00  -7.903765e-03 -6.493166e-04 0.000000e+00  -7.482354e-03 -6.512836e-04 0.000000e+00  -7.060306e-03 -6.513849e-04 0.000000e+00  -6.638780e-03 -6.495771e-04 0.000000e+00  -6.218962e-03 -6.458185e-04