<?xml version="1.0"?>
<VTKFile type="UnstructuredGrid"  version="0.1"  >
<UnstructuredGrid>
<Piece  NumberOfPoints="16641" NumberOfCells="32768">
<Points>
<DataArray  type="Float32"  NumberOfComponents="3"  format="ascii">0 0 0  0.0078125 0 0  0.015625 0 0  0.0234375 0 0  0.03125 0 0  0.0390625 0 0  0.046875 0 0  0.0546875 0 0  0.0625 0 0  0.0703125 0 0  0.078125 0 0  0.0859375 0 0  0.09375 0 0  0.101562 0 0  0.109375 0 0  0.117188 0 0  0.125 0 0  0.132812 0 0  0.140625 0 0  0.148438 0 0  0.15625 0 0  0.164062 0 0  0.171875 0 0  0.179688 0 0  0.1875 0 0  0.195312 0 0  0.203125 0 0  0.210938 0 0  0.21875 0 0  0.226562 0 0  0.234375 0 0  0.242188 0 0  0.25 0 0  0.257812 0 0  0.265625 0 0  0.273438 0 0  0.28125 0 0  0.289062 0 0  0.296875 0 0  0.304688 0 0  0.3125 0 0  0.320312 0 0  0.328125 0 0  0.335938 0 0  0.34375 0 0  0.351562 0 0  0.359375 0 0  0.367188 0 0  0.375 0 0  0.382812 0 0  0.390625 0 0  0.398438 0 0  0.40625 0 0  0.414062 0 0  0.421875 0 0  0.429688 0 0  0.4375 0 0  0.445312 0 0  0.453125 0 0  0.460938 0 0  0.46875 0 0  0.476562 0 0  0.484375 0 0  0.492188 0 0  0.5 0 0  0.507812 0 0  0.515625 0 0  0.523438 0 0  0.53125 0 0  0.539062 0 0  0.546875 0 0  0.554688 0 0  0.5625 0 0  0.570312 0 0  0.578125 0 0  0.585938 0 0  0.59375 0 0  0.601562 0 0  0.609375 0 0  0.617188 0 0  0.625 0 0  0.632812 0 0  0.640625 0 0  0.648438 0 0  0.65625 0 0  0.664062 0 0  0.671875 0 0  0.679688 0 0  0.6875 0 0  0.695312 0 0  0.703125 0 0  0.710938 0 0  0.71875 0 0  0.726562 0 0  0.734375 0 0  0.742188 0 0  0.75 0 0  0.757812 0 0  0.765625 0 0  0.773438 0 0  0.78125 0 0  0.789062 0 0  0.796875 0 0  0.804688 0 0  0.8125 0 0  0.820312 0 0  0.828125 0 0  0.835938 0 0  0.84375 0 0  0.851562 0 0  0.859375 0 0  0.867188 0 0  0.875 0 0  0.882812 0 0  0.890625 0 0  0.898438 0 0  0.90625 0 0  0.914062 0 0  0.921875 0 0  0.929688 0 0  0.9375 0 0  0.945312 0 0  0.953125 0 0  0.960938 0 0  0.96875 0 0  0.976562 0 0  0.984375 0 0  0.992188 0 0  1 0 0  0 0.0078125 0  0.0078125 0.0078125 0  0.015625 0.0078125 0  0.0234375 0.0078125 0  0.03125 0.0078125 0  0.0390625 0.0078125 0  0.046875 0.0078125 0  0.0546875 0.0078125 0  0.0625 0.0078125 0  0.0703125 0.0078125 0  0.078125 0.0078125 0  0.0859375 0.0078125 0  0.09375 0.0078125 0  0.101562 0.0078125 0  0.109375 0.0078125 0  0.117188 0.0078125 0  0.125 0.0078125 0  0.132812 0.0078125 0  0.140625 0.0078125 0  0.148438 0.0078125 0  0.15625 0.0078125 0  0.164062 0.0078125 0  0.171875 0.0078125 0  0.179688 0.0078125 0  0.1875 0.0078125 0  0.195312 0.0078125 0  0.203125 0.0078125 0  0.210938 0.0078125 0  0.21875 0.0078125 0  0.226562 0.0078125 0  0.234375 0.0078125 0  0.242188 0.0078125 0  0.25 0.0078125 0  0.257812 0.0078125 0  0.265625 0.0078125 0  0.273438 0.0078125 0  0.28125 0.0078125 0  0.289062 0.0078125 0  0.296875 0.0078125 0  0.304688 0.0078125 0  0.3125 0.0078125 0  0.320312 0.0078125 0  0.328125 0.0078125 0  0.335938 0.0078125 0  0.34375 0.0078125 0  0.351562 0.0078125 0  0.359375 0.0078125 0  0.367188 0.0078125 0  0.375 0.0078125 0  0.382812 0.0078125 0  0.390625 0.0078125 0  0.398438 0.0078125 0  0.40625 0.0078125 0  0.414062 0.0078125 0  0.421875 0.0078125 0  0.429688 0.0078125 0  0.4375 0.0078125 0  0.445312 0.0078125 0  0.453125 0.0078125 0  0.460938 0.0078125 0  0.46875 0.0078125 0  0.476562 0.0078125 0  0.484375 0.0078125 0  0.492188 0.0078125 0  0.5 0.0078125 0  0.507812 0.0078125 0  0.515625 0.0078125 0  0.523438 0.0078125 0  0.53125 0.0078125 0  0.539062 0.0078125 0  0.546875 0.0078125 0  0.554688 0.0078125 0  0.5625 0.0078125 0  0.570312 0.0078125 0  0.578125 0.0078125 0  0.585938 0.0078125 0  0.59375 0.0078125 0  0.601562 0.0078125 0  0.609375 0.0078125 0  0.617188 0.0078125 0  0.625 0.0078125 0  0.632812 0.0078125 0  0.640625 0.0078125 0  0.648438 0.0078125 0  0.65625 0.0078125 0  0.664062 0.0078125 0  0.671875 0.0078125 0  0.679688 0.0078125 0  0.6875 0.0078125 0  0.695312 0.0078125 0  0.703125 0.0078125 0  0.710938 0.0078125 0  0.71875 0.0078125 0  0.726562 0.0078125 0  0.734375 0.0078125 0  0.742188 0.0078125 0  0.75 0.0078125 0  0.757812 0.0078125 0  0.765625 0.0078125 0  0.773438 0.0078125 0  0.78125 0.0078125 0  0.789062 0.0078125 0  0.796875 0.0078125 0  0.804688 0.0078125 0  0.8125 0.0078125 0  0.820312 0.0078125 0  0.828125 0.0078125 0  0.835938 0.0078125 0  0.84375 0.0078125 0  0.851562 0.0078125 0  0.859375 0.0078125 0  0.867188 0.0078125 0  0.875 0.0078125 0  0.882812 0.0078125 0  0.890625 0.0078125 0  0.898438 0.0078125 0  0.90625 0.0078125 0  0.914062 0.0078125 0  0.921875 0.0078125 0  0.929688 0.0078125 0  0.9375 0.0078125 0  0.945312 0.0078125 0  0.953125 0.0078125 0  0.960938 0.0078125 0  0.96875 0.0078125 0  0.976562 0.0078125 0  0.984375 0.0078125 0  0.992188 0.0078125 0  1 0.0078125 0  0 0.015625 0  0.0078125 0.015625 0  0.015625 0.015625 0  0.0234375 0.015625 0  0.03125 0.015625 0  0.0390625 0.015625 0  0.046875 0.015625 0  0.0546875 0.015625 0  0.0625 0.015625 0  0.0703125 0.015625 0  0.078125 0.015625 0  0.0859375 0.015625 0  0.09375 0.015625 0  0.101562 0.015625 0  0.109375 0.015625 0  0.117188 0.015625 0  0.125 0.015625 0  0.132812 0.015625 0  0.140625 0.015625 0  0.148438 0.015625 0  0.15625 0.015625 0  0.164062 0.015625 0  0.171875 0.015625 0  0.179688 0.015625 0  0.1875 0.015625 0  0.195312 0.015625 0  0.203125 0.015625 0  0.210938 0.015625 0  0.21875 0.015625 0  0.226562 0.015625 0  0.234375 0.015625 0  0.242188 0.015625 0  0.25 0.015625 0  0.257812 0.015625 0  0.265625 0.015625 0  0.273438 0.015625 0  0.28125 0.015625 0  0.289062 0.015625 0  0.296875 0.015625 0  0.304688 0.015625 0  0.3125 0.015625 0  0.320312 0.015625 0  0.328125 0.015625 0  0.335938 0.015625 0  0.34375 0.015625 0  0.351562 0.015625 0  0.359375 0.015625 0  0.367188 0.015625 0  0.375 0.015625 0  0.382812 0.015625 0  0.390625 0.015625 0  0.398438 0.015625 0  0.40625 0.015625 0  0.414062 0.015625 0  0.421875 0.015625 0  0.429688 0.015625 0  0.4375 0.015625 0  0.445312 0.015625 0  0.453125 0.015625 0  0.460938 0.015625 0  0.46875 0.015625 0  0.476562 0.015625 0  0.484375 0.015625 0  0.492188 0.015625 0  0.5 0.015625 0  0.507812 0.015625 0  0.515625 0.015625 0  0.523438 0.015625 0  0.53125 0.015625 0  0.539062 0.015625 0  0.546875 0.015625 0  0.554688 0.015625 0  0.5625 0.015625 0  0.570312 0.015625 0  0.578125 0.015625 0  0.585938 0.015625 0  0.59375 0.015625 0  0.601562 0.015625 0  0.609375 0.015625 0  0.617188 0.015625 0  0.625 0.015625 0  0.632812 0.015625 0  0.640625 0.015625 0  0.648438 0.015625 0  0.65625 0.015625 0  0.664062 0.015625 0  0.671875 0.015625 0  0.679688 0.015625 0  0.6875 0.015625 0  0.695312 0.015625 0  0.703125 0.015625 0  0.710938 0.015625 0  0.71875 0.015625 0  0.726562 0.015625 0  0.734375 0.015625 0  0.742188 0.015625 0  0.75 0.015625 0  0.757812 0.015625 0  0.765625 0.015625 0  0.773438 0.015625 0  0.78125 0.015625 0  0.789062 0.015625 0  0.796875 0.015625 0  0.804688 0.015625 0  0.8125 0.015625 0  0.820312 0.015625 0  0.828125 0.015625 0  0.835938 0.015625 0  0.84375 0.015625 0  0.851562 0.015625 0  0.859375 0.015625 0  0.867188 0.015625 0  0.875 0.015625 0  0.882812 0.015625 0  0.890625 0.015625 0  0.898438 0.015625 0  0.90625 0.015625 0  0.914062 0.015625 0  0.921875 0.015625 0  0.929688 0.015625 0  0.9375 0.015625 0  0.945312 0.015625 0  0.953125 0.015625 0  0.960938 0.015625 0  0.96875 0.015625 0  0.976562 0.015625 0  0.984375 0.015625 0  0.992188 0.015625 0  1 0.015625 0  0 0.0234375 0  0.0078125 0.0234375 0  0.015625 0.0234375 0  0.0234375 0.0234375 0  0.03125 0.0234375 0  0.0390625 0.0234375 0  0.046875 0.0234375 0  0.0546875 0.0234375 0  0.0625 0.0234375 0  0.0703125 0.0234375 0  0.078125 0.0234375 0  0.0859375 0.0234375 0  0.09375 0.0234375 0  0.101562 0.0234375 0  0.109375 0.0234375 0  0.117188 0.0234375 0  0.125 0.0234375 0  0.132812 0.0234375 0  0.140625 0.0234375 0  0.148438 0.0234375 0  0.15625 0.0234375 0  0.164062 0.0234375 0  0.171875 0.0234375 0  0.179688 0.0234375 0  0.1875 0.0234375 0  0.195312 0.0234375 0  0.203125 0.0234375 0  0.210938 0.0234375 0  0.21875 0.0234375 0  0.226562 0.0234375 0  0.234375 0.0234375 0  0.242188 0.0234375 0  0.25 0.0234375 0  0.257812 0.0234375 0  0.265625 0.0234375 0  0.273438 0.0234375 0  0.28125 0.0234375 0  0.289062 0.0234375 0  0.296875 0.0234375 0  0.304688 0.0234375 0  0.3125 0.0234375 0  0.320312 0.0234375 0  0.328125 0.0234375 0  0.335938 0.0234375 0  0.34375 0.0234375 0  0.351562 0.0234375 0  0.359375 0.0234375 0  0.367188 0.0234375 0  0.375 0.0234375 0  0.382812 0.0234375 0  0.390625 0.0234375 0  0.398438 0.0234375 0  0.40625 0.0234375 0  0.414062 0.0234375 0  0.421875 0.0234375 0  0.429688 0.0234375 0  0.4375 0.0234375 0  0.445312 0.0234375 0  0.453125 0.0234375 0  0.460938 0.0234375 0  0.46875 0.0234375 0  0.476562 0.0234375 0  0.484375 0.0234375 0  0.492188 0.0234375 0  0.5 0.0234375 0  0.507812 0.0234375 0  0.515625 0.0234375 0  0.523438 0.0234375 0  0.53125 0.0234375 0  0.539062 0.0234375 0  0.546875 0.0234375 0  0.554688 0.0234375 0  0.5625 0.0234375 0  0.570312 0.0234375 0  0.578125 0.0234375 0  0.585938 0.0234375 0  0.59375 0.0234375 0  0.601562 0.0234375 0  0.609375 0.0234375 0  0.617188 0.0234375 0  0.625 0.0234375 0  0.632812 0.0234375 0  0.640625 0.0234375 0  0.648438 0.0234375 0  0.65625 0.0234375 0  0.664062 0.0234375 0  0.671875 0.0234375 0  0.679688 0.0234375 0  0.6875 0.0234375 0  0.695312 0.0234375 0  0.703125 0.0234375 0  0.710938 0.0234375 0  0.71875 0.0234375 0  0.726562 0.0234375 0  0.734375 0.0234375 0  0.742188 0.0234375 0  0.75 0.0234375 0  0.757812 0.0234375 0  0.765625 0.0234375 0  0.773438 0.0234375 0  0.78125 0.0234375 0  0.789062 0.0234375 0  0.796875 0.0234375 0  0.804688 0.0234375 0  0.8125 0.0234375 0  0.820312 0.0234375 0  0.828125 0.0234375 0  0.835938 0.0234375 0  0.84375 0.0234375 0  0.851562 0.0234375 0  0.859375 0.0234375 0  0.867188 0.0234375 0  0.875 0.0234375 0  0.882812 0.0234375 0  0.890625 0.0234375 0  0.898438 0.0234375 0  0.90625 0.0234375 0  0.914062 0.0234375 0  0.921875 0.0234375 0  0.929688 0.0234375 0  0.9375 0.0234375 0  0.945312 0.0234
[...]
<PointData  Vectors="u"> 
<DataArray  type="Float32"  Name="u"  NumberOfComponents="3" format="ascii">0.000000e+00 0.000000e+00 0.000000e+00  0.000000e+00 0.000000e+00 0.000000e+00  0.000000e+00 0.000000e+00 0.000000e+00  0.000000e+00 0.000000e+00 0.000000e+00  0.000000e+00 0.000000e+00 0.000000e+00  0.000000e+00 0.000000e+00 0.000000e+00  0.000000e+00 0.000000e+00 0.000000e+00  0.000000e+00 0.000000e+00 0.000000e+00  0.000000e+00 0.000000e+00 0.000000e+00  0.000000e+00 0.000000e+00 0.000000e+00  0.000000e+00 0.000000e+00 0.000000e+00  0.000000e+00 0.000000e+00 0.000000e+00  0.000000e+00 0.000000e+00 0.000000e+00  0.000000e+00 0.000000e+00 0.000000e+00  0.000000e+00 0.000000e+00 0.000000e+00  0.000000e+00 0.000000e+00 0.000000e+00  0.000000e+00 0.000000e+00 0.000000e+00  0.000000e+00 0.000000e+00 0.000000e+00  0.000000e+00 0.000000e+00 0.000000e+00  0.000000e+00 0.000000e+00 0.000000e+00  0.000000e+00 0.000000e+00 0.000000e+00  0.000000e+00 0.000000e+00 0.000000e+00  0.000000e+00 0.000000e+00 0.000000e+00  0.000000e+00 0.000000e+00 0.000000e+00  0.000000e+00 0.000000e+00 0.000000e+00  0.000000e+00 0.000000e+00 0.000000e+00  0.000000e+00 0.000000e+00 0.000000e+00  0.000000e+00 0.000000e+00 0.000000e+00  0.000000e+00 0.000000e+00 0.000000e+00  0.000000e+00 0.000000e+00 0.000000e+00  0.000000e+00 0.000000e+00 0.000000e+00  0.000000e+00 0.000000e+00 0.000000e+00  0.000000e+00 0.000000e+00 0.000000e+00  0.000000e+00 0.000000e+00 0.000000e+00  0.000000e+00 0.000000e+00 0.000000e+00  0.000000e+00 0.000000e+00 0.000000e+00  0.000000e+00 0.000000e+00 0.000000e+00  0.000000e+00 0.000000e+00 0.000000e+00  0.000000e+00 0.000000e+00 0.000000e+00  0.000000e+00 0.000000e+00 0.000000e+00  0.000000e+00 0.000000e+00 0.000000e+00  0.000000e+00 0.000000e+00 0.000000e+00  0.000000e+00 0.000000e+00 0.000000e+00  0.000000e+00 0.000000e+00 0.000000e+00  0.000000e+00 0.000000e+00 0.000000e+00  0.000000e+00 0.000000e+00 0.000000e+00  0.000000e+00 0.000000e+00 0.000000e+00  0.000000e+00 0.000000e+00 0.000000e+00  0.000000e+00 0.000000e+00 0.000000e+00  0.000000e+00 0.000000e+00 0.000000e+00  0.000000e+00 0.000000e+00 0.000000e+00  0.000000e+00 0.000000e+00 0.000000e+00  0.000000e+00 0.000000e+00 0.000000e+00  0.000000e+00 0.000000e+00 0.000000e+00  0.000000e+00 0.000000e+00 0.000000e+00  0.000000e+00 0.000000e+00 0.000000e+00  0.000000e+00 0.000000e+00 0.000000e+00  0.000000e+00 0.000000e+00 0.000000e+00  0.000000e+00 0.000000e+00 0.000000e+00  0.000000e+00 0.000000e+00 0.000000e+00  0.000000e+00 0.000000e+00 0.000000e+00  0.000000e+00 0.000000e+00 0.000000e+00  0.000000e+00 0.000000e+00 0.000000e+00  0.000000e+00 0.000000e+00 0.000000e+00  0.000000e+00 0.000000e+00 0.000000e+00  0.000000e+00 0.000000e+00 0.000000e+00  0.000000e+00 0.000000e+00 0.000000e+00  0.000000e+00 0.000000e+00 0.000000e+00  0.000000e+00 0.000000e+00 0.000000e+00  0.000000e+00 0.000000e+00 0.000000e+00  0.000000e+00 0.000000e+00 0.000000e+00  0.000000e+00 0.000000e+00 0.000000e+00  0.000000e+00 0.000000e+00 0.000000e+00  0.000000e+00 0.000000e+00 0.000000e+00  0.000000e+00 0.000000e+00 0.000000e+00  0.000000e+00 0.000000e+00 0.000000e+00  0.000000e+00 0.000000e+00 0.000000e+00  0.000000e+00 0.000000e+00 0.000000e+00  0.000000e+00 0.000000e+00 0.000000e+00  0.000000e+00 0.000000e+00 0.000000e+00  0.000000e+00 0.000000e+00 0.000000e+00  0.000000e+00 0.000000e+00 0.000000e+00  0.000000e+00 0.000000e+00 0.000000e+00  0.000000e+00 0.000000e+00 0.000000e+00  0.000000e+00 0.000000e+00 0.000000e+00  0.000000e+00 0.000000e+00 0.000000e+00  0.000000e+00 0.000000e+00 0.000000e+00  0.000000e+00 0.000000e+00 0.000000e+00  0.000000e+00 0.000000e+00 0.000000e+00  0.000000e+00 0.000000e+00 0.000000e+00  0.000000e+00 0.000000e+00 0.000000e+00  0.000000e+00 0.000000e+00 0.000000e+00  0.000000e+00 0.000000e+00 0.000000e+00  0.000000e+00 0.000000e+00 0.000000e+00  0.000000e+00 0.000000e+00 0.000000e+00  0.000000e+00 0.000000e+00 0.000000e+00  0.000000e+00 0.000000e+00 0.000000e+00  0.000000e+00 0.000000e+00 0.000000e+00  0.000000e+00 0.000000e+00 0.000000e+00  0.000000e+00 0.000000e+00 0.000000e+00  0.000000e+00 0.000000e+00 0.000000e+00  0.000000e+00 0.000000e+00 0.000000e+00  0.000000e+00 0.000000e+00 0.000000e+00  0.000000e+00 0.000000e+00 0.000000e+00  0.000000e+00 0.000000e+00 0.000000e+00  0.000000e+00 0.000000e+00 0.000000e+00  0.000000e+00 0.000000e+00 0.000000e+00  0.000000e+00 0.000000e+00 0.000000e+00  0.000000e+00 0.000000e+00 0.000000e+00  0.000000e+00 0.000000e+00 0.000000e+00  0.000000e+00 0.000000e+00 0.000000e+00  0.000000e+00 0.000000e+00 0.000000e+00  0.000000e+00 0.000000e+00 0.000000e+00  0.000000e+00 0.000000e+00 0.000000e+00  0.000000e+00 0.000000e+00 0.000000e+00  0.000000e+00 0.000000e+00 0.000000e+00  0.000000e+00 0.000000e+00 0.000000e+00  0.000000e+00 0.000000e+00 0.000000e+00  0.000000e+00 0.000000e+00 0.000000e+00  0.000000e+00 0.000000e+00 0.000000e+00  0.000000e+00 0.000000e+00 0.000000e+00  0.000000e+00 0.000000e+00 0.000000e+00  0.000000e+00 0.000000e+00 0.000000e+00  0.000000e+00 0.000000e+00 0.000000e+00  0.000000e+00 0.000000e+00 0.000000e+00  0.000000e+00 0.000000e+00 0.000000e+00  0.000000e+00 0.000000e+00 0.000000e+00  0.000000e+00 0.000000e+00 0.000000e+00  0.000000e+00 0.000000e+00 0.000000e+00  0.000000e+00 0.000000e+00 0.000000e+00  5.197645e-06 -5.197653e-06 0.000000e+00  1.858794e-05 -9.093895e-06 0.000000e+00  3.597058e-05 -1.004113e-05 0.000000e+00  5.277553e-05 -8.851857e-06 0.000000e+00  6.579472e-05 -6.215849e-06 0.000000e+00  7.277991e-05 -2.632093e-06 0.000000e+00  7.224634e-05 1.554321e-06 0.000000e+00  6.324693e-05 6.106140e-06 0.000000e+00  4.521677e-05 1.085653e-05 0.000000e+00  1.786684e-05 1.568609e-05 0.000000e+00  -1.889033e-05 2.050796e-05 0.000000e+00  -6.499302e-05 2.525800e-05 0.000000e+00  -1.202640e-04 2.988805e-05 0.000000e+00  -1.844570e-04 3.436295e-05 0.000000e+00  -2.572434e-04 3.865486e-05 0.000000e+00  -3.382417e-04 4.274261e-05 0.000000e+00  -4.270526e-04 4.661121e-05 0.000000e+00  -5.232529e-04 5.024947e-05 0.000000e+00  -6.263741e-04 5.364836e-05 0.000000e+00  -7.359291e-04 5.680140e-05 0.000000e+00  -8.514470e-04 5.970499e-05 0.000000e+00  -9.724527e-04 6.235700e-05 0.000000e+00  -1.098436e-03 6.475598e-05 0.000000e+00  -1.228884e-03 6.690167e-05 0.000000e+00  -1.363316e-03 6.879540e-05 0.000000e+00  -1.501255e-03 7.043914e-05 0.000000e+00  -1.642194e-03 7.183514e-05 0.000000e+00  -1.785629e-03 7.298635e-05 0.000000e+00  -1.931100e-03 7.389656e-05 0.000000e+00  -2.078153e-03 7.456991e-05 0.000000e+00  -2.226307e-03 7.501076e-05 0.000000e+00  -2.375088e-03 7.522391e-05 0.000000e+00  -2.524070e-03 7.521456e-05 0.000000e+00  -2.672838e-03 7.498811e-05 0.000000e+00  -2.820948e-03 7.455021e-05 0.000000e+00  -2.967970e-03 7.390686e-05 0.000000e+00  -3.113522e-03 7.306409e-05 0.000000e+00  -3.257234e-03 7.202802e-05 0.000000e+00  -3.398711e-03 7.080519e-05 0.000000e+00  -3.537571e-03 6.940234e-05 0.000000e+00  -3.673484e-03 6.782599e-05 0.000000e+00  -3.806128e-03 6.608271e-05 0.000000e+00  -3.935163e-03 6.417958e-05 0.000000e+00  -4.060263e-03 6.212382e-05 0.000000e+00  -4.181149e-03 5.992224e-05 0.000000e+00  -4.297553e-03 5.758161e-05 0.000000e+00  -4.409191e-03 5.510936e-05 0.000000e+00  -4.515797e-03 5.251302e-05 0.000000e+00  -4.617144e-03 4.979950e-05 0.000000e+00  -4.713021e-03 4.697569e-05 0.000000e+00  -4.803203e-03 4.404920e-05 0.000000e+00  -4.887483e-03 4.102773e-05 0.000000e+00  -4.965691e-03 3.791821e-05 0.000000e+00  -5.037668e-03 3.472756e-05 0.000000e+00  -5.103251e-03 3.146350e-05 0.000000e+00  -5.162294e-03 2.813379e-05 0.000000e+00  -5.214684e-03 2.474537e-05 0.000000e+00  -5.260314e-03 2.130513e-05 0.000000e+00  -5.299085e-03 1.782083e-05 0.000000e+00  -5.330912e-03 1.430029e-05 0.000000e+00  -5.355734e-03 1.075040e-05 0.000000e+00  -5.373504e-03 7.178030e-06 0.000000e+00  -5.384180e-03 3.590982e-06 0.000000e+00  -5.387741e-03 -2.938174e-09 0.000000e+00  -5.384181e-03 -3.596850e-06 0.000000e+00  -5.373506e-03 -7.183879e-06 0.000000e+00  -5.355738e-03 -1.075623e-05 0.000000e+00  -5.330916e-03 -1.430609e-05 0.000000e+00  -5.299091e-03 -1.782658e-05 0.000000e+00  -5.260321e-03 -2.131081e-05 0.000000e+00  -5.214692e-03 -2.475100e-05 0.000000e+00  -5.162304e-03 -2.813934e-05 0.000000e+00  -5.103261e-03 -3.146896e-05 0.000000e+00  -5.037679e-03 -3.473292e-05 0.000000e+00  -4.965703e-03 -3.792347e-05 0.000000e+00  -4.887496e-03 -4.103286e-05 0.000000e+00  -4.803218e-03 -4.405420e-05 0.000000e+00  -4.713037e-03 -4.698055e-05 0.000000e+00  -4.617161e-03 -4.980422e-05 0.000000e+00  -4.515814e-03 -5.251758e-05 0.000000e+00  -4.409209e-03 -5.511374e-05 0.000000e+00  -4.297572e-03 -5.758580e-05 0.000000e+00  -4.181169e-03 -5.992624e-05 0.000000e+00  -4.060284e-03 -6.212763e-05 0.000000e+00  -3.935184e-03 -6.418317e-05 0.000000e+00  -3.806150e-03 -6.608607e-05 0.000000e+00  -3.673506e-03 -6.782912e-05 0.000000e+00  -3.537594e-03 -6.940521e-05 0.000000e+00  -3.398733e-03 -7.080779e-05 0.000000e+00  -3.257256e-03 -7.203034e-05 0.000000e+00  -3.113544e-03 -7.306611e-05 0.000000e+00  -2.967992e-03 -7.390856e-05 0.000000e+00  -2.820970e-03 -7.455157e-05 0.000000e+00  -2.672859e-03 -7.498910e-05 0.000000e+00  -2.524090e-03 -7.521517e-05 0.000000e+00  -2.375107e-03 -7.522409e-05 0.000000e+00  -2.226326e-03 -7.501049e-05 0.000000e+00  -2.078171e-03 -7.456915e-05 0.000000e+00  -1.931116e-03 -7.389526e-05 0.000000e+00  -1.785644e-03 -7.298448e-05 0.000000e+00  -1.642208e-03 -7.183266e-05 0.000000e+00  -1.501267e-03 -7.043598e-05 0.000000e+00  -1.363327e-03 -6.879151e-05 0.000000e+00  -1.228894e-03 -6.689700e-05 0.000000e+00  -1.098444e-03 -6.475046e-05 0.000000e+00  -9.724591e-04 -6.235058e-05 0.000000e+00  -8.514521e-04 -5.969758e-05 0.000000e+00  -7.359329e-04 -5.679293e-05 0.000000e+00  -6.263767e-04 -5.363875e-05 0.000000e+00  -5.232543e-04 -5.023865e-05 0.000000e+00  -4.270531e-04 -4.659908e-05 0.000000e+00  -3.382412e-04 -4.272909e-05 0.000000e+00  -2.572420e-04 -3.863985e-05 0.000000e+00  -1.844547e-04 -3.434636e-05 0.000000e+00  -1.202609e-04 -2.986978e-05 0.000000e+00  -6.498913e-05 -2.523799e-05 0.000000e+00  -1.888820e-05 -2.048650e-05 0.000000e+00  1.787266e-05 -1.566262e-05 0.000000e+00  4.522529e-05 -1.083123e-05 0.000000e+00  6.325551e-05 -6.080129e-06 0.000000e+00  7.225645e-05 -1.528599e-06 0.000000e+00  7.279225e-05 2.656055e-06 0.000000e+00  6.580857e-05 6.233783e-06 0.000000e+00  5.279105e-05 8.856534e-06 0.000000e+00  3.597045e-05 1.001546e-05 0.000000e+00  1.863991e-05 9.011016e-06 0.000000e+00  5.096228e-06 5.096620e-06 0.000000e+00  0.000000e+00 0.000000e+00 0.000000e+00  0.000000e+00 0.000000e+00 0.000000e+00  9.099399e-06 -1.859129e-05 0.000000e+00  2.942998e-05 -2.941480e-05 0.000000e+00  5.338270e-05 -3.149479e-05 0.000000e+00  7.477602e-05 -2.661503e-05 0.000000e+00  8.878239e-05 -1.672577e-05 0.000000e+00  9.175918e-05 -3.390683e-06 0.000000e+00  8.112463e-05 1.223483e-05 0.000000e+00  5.512105e-05 2.930922e-05 0.000000e+00  1.262945e-05 4.721752e-05 0.000000e+00  -4.698207e-05 6.550633e-05 0.000000e+00  -1.239736e-04 8.383779e-05 0.000000e+00  -2.183203e-04 1.019576e-04 0.000000e+00  -3.297698e-04 1.196716e-04 0.000000e+00  -4.579307e-04 1.368357e-04 0.000000e+00  -6.022431e-04 1.533344e-04 0.000000e+00  -7.620360e-04 1.690788e-04 0.000000e+00  -9.365977e-04 1.840046e-04 0.000000e+00  -1.125162e-03 1.980629e-04 0.000000e+00  -1.326869e-03 2.112138e-04 0.000000e+00  -1.540815e-03 2.234282e-04 0.000000e+00  -1.766124e-03 2.346882e-04 0.000000e+00  -2.001908e-03 2.449826e-04 0.000000e+00  -2.247205e-03 2.543028e-04 0.000000e+00  -2.501043e-03 2.626456e-04 0.000000e+00  -2.762511e-03 2.700139e-04 0.000000e+00  -3.030705e-03 2.764137e-04 0.000000e+00  -3.304655e-03 2.818520e-04 0.000000e+00  -3.583397e-03 2.863391e-04 0.000000e+00  -3.866048e-03 2.898884e-04 0.000000e+00  -4.151741e-03 2.925151e-04 0.000000e+00  -4.439548e-03 2.942352e-04 0.000000e+00  -4.728557e-03 2.950667e-04 0.000000e+00  -5.017947e-03 2.950291e-04 0.000000e+00  -5.306917e-03 2.941429e-04 0.000000e+00  -5.594611e-03 2.924297e-04 0.000000e+00  -5.880194e-03 2.899124e-04 0.000000e+00  -6.162929e-03 2.866141e-04 0.000000e+00  -6.442097e-03 2.825586e-04 0.000000e+00  -6.716934e-03 2.777709e-04 0.000000e+00  -6.986700e-03 2.722772e-04 0.000000e+00  -7.250750e-03 2.661030e-04 0.000000e+00  -7.508463e-03 2.592735e-04 0.000000e+00  -7.759176e-03 2.518165e-04 0.000000e+00  -8.002254e-03 2.437600e-04 0.000000e+00  -8.237156e-03 2.351307e-04 0.000000e+00  -8.463360e-03 2.259549e-04 0.000000e+00  -8.680314e-03 2.162618e-04 0.000000e+00  -8.887497e-03 2.060809e-04 0.000000e+00  -9.084471e-03 1.954390e-04 0.000000e+00  -9.270820e-03 1.843634e-04 0.000000e+00  -9.446108e-03 1.728838e-04 0.000000e+00  -9.609930e-03 1.610305e-04 0.000000e+00  -9.761955e-03 1.488307e-04 0.000000e+00  -9.901874e-03 1.363115e-04 0.000000e+00  -1.002937e-02 1.235033e-04 0.000000e+00  -1.014415e-02 1.104366e-04 0.000000e+00  -1.024600e-02 9.713877e-05 0.000000e+00  -1.033471e-02 8.363684e-05 0.000000e+00  -1.041009e-02 6.996143e-05 0.000000e+00  -1.047197e-02 5.614323e-05 0.000000e+00  -1.052023e-02 4.220940e-05 0.000000e+00  -1.055478e-02 2.818704e-05 0.000000e+00  -1.057553e-02 1.410686e-05 0.000000e+00  -1.058246e-02 -4.320471e-10 0.000000e+00  -1.057554e-02 -1.410772e-05 0.000000e+00  -1.055478e-02 -2.818790e-05 0.000000e+00  -1.052024e-02 -4.221024e-05 0.000000e+00  -1.047198e-02 -5.614407e-05 0.000000e+00  -1.041010e-02 -6.996226e-05 0.000000e+00  -1.033473e-02 -8.363765e-05 0.000000e+00  -1.024602e-02 -9.713956e-05 0.000000e+00  -1.014417e-02 -1.104374e-04 0.000000e+00  -1.002939e-02 -1.235040e-04 0.000000e+00  -9.901895e-03 -1.363122e-04 0.000000e+00  -9.761978e-03 -1.488314e-04 0.000000e+00  -9.609955e-03 -1.610312e-04 0.000000e+00  -9.446135e-03 -1.728845e-04 0.000000e+00  -9.270849e-03 -1.843640e-04 0.000000e+00  -9.084502e-03 -1.954397e-04 0.000000e+00  -8.887529e-03 -2.060815e-04 0.000000e+00  -8.680348e-03 -2.162625e-04 0.000000e+00  -8.463395e-03 -2.259556e-04 0.000000e+00  -8.237193e-03 -2.351313e-04 0.000000e+00  -8.002292e-03 -2.437607e-04 0.000000e+00  -7.759214e-03 -2.518172e-04 0.000000e+00  -7.508503e-03 -2.592743e-04 0.000000e+00  -7.250790e-03 -2.661038e-04 0.000000e+00  -6.986740e-03 -2.722781e-04 0.000000e+00  -6.716975e-03 -2.777718e-04 0.000000e+00  -6.442138e-03 -2.825596e-04 0.000000e+00  -6.162969e-03 -2.866152e-04 0.000000e+00  -5.880234e-03 -2.899135e-04 0.000000e+00  -5.594650e-03 -2.924310e-04 0.000000e+00  -5.306955e-03 -2.941442e-04 0.000000e+00  -5.017984e-03 -2.950305e-04 0.000000e+00  -4.728592e-03 -2.950680e-04 0.000000e+00  -4.439581e-03 -2.942365e-04 0.000000e+00  -4.151771e-03 -2.925164e-04 0.000000e+00  -3.866076e-03 -2.898896e-04 0.000000e+00  -3.583422e-03 -2.863401e-04 0.000000e+00  -3.304677e-03 -2.818528e-04 0.000000e+00  -3.030725e-03 -2.764142e-04 0.000000e+00  -2.762529e-03 -2.700141e-04 0.000000e+00  -2.501057e-03 -2.626454e-04 0.000000e+00  -2.247216e-03 -2.543022e-04 0.000000e+00  -2.001916e-03 -2.449815e-04 0.000000e+00  -1.766130e-03 -2.346865e-04 0.000000e+00  -1.540819e-03 -2.234259e-04 0.000000e+00  -1.326870e-03 -2.112109e-04 0.000000e+00  -1.125162e-03 -1.980593e-04 0.000000e+00  -9.365953e-04 -1.840003e-04 0.000000e+00  -7.620320e-04 -1.690738e-04 0.000000e+00  -6.022376e-04 -1.533287e-04 0.000000e+00  -4.579241e-04 -1.368294e-04 0.000000e+00  -3.297621e-04 -1.196648e-04 0.000000e+00  -2.183117e-04 -1.019505e-04 0.000000e+00  -1.239699e-04 -8.383170e-05 0.000000e+00  -4.697229e-05 -6.549931e-05 0.000000e+00  1.264287e-05 -4.721010e-05 0.000000e+00  5.513129e-05 -2.930445e-05 0.000000e+00  8.113335e-05 -1.223358e-05 0.000000e+00  9.176791e-05 3.389400e-06 0.000000e+00  8.878740e-05 1.672065e-05 0.000000e+00  7.477968e-05 2.660504e-05 0.000000e+00  5.337678e-05 3.149062e-05 0.000000e+00  2.944258e-05 2.942798e-05 0.000000e+00  9.015269e-06 1.864258e-05 0.000000e+00  0.000000e+00 0.000000e+00 0.000000e+00  0.000000e+00 0.000000e+00 0.000000e+00  1.007256e-05 -3.600580e-05 0.000000e+00  3.160276e-05 -5.340053e-05 0.000000e+00  5.469339e-05 -5.453604e-05 0.000000e+00  7.212489e-05 -4.275017e-05 0.000000e+00  7.824201e-05 -2.131323e-05 0.000000e+00  6.866451e-05 7.036242e-06 0.000000e+00  4.013395e-05 4.015177e-05 0.000000e+00  -9.672313e-06 7.639215e-05 0.000000e+00  -8.230659e-05 1.145120e-04 0.000000e+00  -1.787030e-04 1.535650e-04 0.000000e+00  -2.993029e-04 1.928286e-04 0.000000e+00  -4.441561e-04 2.317475e-04 0.000000e+00  -6.129903e-04 2.698907e-04 0.000000e+00  -8.053326e-04 3.069328e-04 0.000000e+00  -1.020459e-03 3.426099e-04 0.000000e+00  -1.257480e-03 3.767163e-04 0.000000e+00  -1.515438e-03 4.091001e-04 0.000000e+00  -1.793289e-03 4.396445e-04 0.000000e+00  -2.089847e-03 4.682531e-04 0.000000e+00  -2.403853e-03 4.948537e-04 0.000000e+00  -2.734083e-03 5.194003e-04 0.000000e+00  -3.079290e-03 5.418615e-04 0.000000e+00  -3.438114e-03 5.622130e-04 0.000000e+00  -3.809174e-03 5.804427e-04 0.000000e+00  -4.191176e-03 5.965526e-04 0.000000e+00  -4.582829e-03 6.105519e-04 0.000000e+00  -4.982746e-03 6.224527e-04 0.000000e+00  -5.389543e-03 6.322743e-04 0.000000e+00  -5.801953e-03 6.400437e-04 0.000000e+00  -6.218727e-03 6.457919e-04 0.000000e+00  -6.638527e-03 6.495518e-04 0.000000e+00  -7.060037e-03 6.513613e-04 0.000000e+00  -7.482070e-03 6.512617e-04 0.000000e+00  -7.903466e-03 6.492967e-04 0.000000e+00  -8.322987e-03 6.455123e-04 0.000000e+00  -8.739420e-03 6.399579e-04 0.000000e+00  -9.151696e-03 6.326838e-04 0.000000e+00  -9.558771e-03 6.237409e-04 0.000000e+00  -9.959534e-03 6.131841e-04 0.000000e+00  -1.035291e-02 6.010702e-04 0.000000e+00  -1.073796e-02 5.874546e-04 0.000000e+00  -1.111377e-02 5.723929e-04 0.000000e+00  -1.147939e-02 5.559455e-04 0.000000e+00  -1.183389e-02 5.381742e-04 0.000000e+00  -1.217647e-02 5.191371e-04 0.000000e+00  -1.250638e-02 4.988926e-04 0.000000e+00  -1.282281e-02 4.775044e-04 0.000000e+00  -1.312499e-02 4.550374e-04 0.000000e+00  -1.341230e-02 4.315513e-04 0.000000e+00  -1.368412e-02 4.071056e-04 0.000000e+00  -1.393981e-02 3.817662e-04 0.000000e+00  -1.417878e-02 3.555997e-04 0.000000e+00  -1.440055e-02 3.286663e-04 0.000000e+00  -1.460467e-02 3.010261e-04 0.000000e+00  -1.479066e-02 2.727460e-04 0.000000e+00  -1.495812e-02 2.438937e-04 0.000000e+00  -1.510671e-02 2.145295e-04 0.000000e+00  -1.523614e-02 1.847133e-04 0.000000e+00  -1.534611e-02 1.545129e-04 0.000000e+00  -1.543639e-02 1.239962e-04 0.000000e+00  -1.550680e-02 9.322345e-05 0.000000e+00  -1.555721e-02 6.225460e-05 0.000000e+00  -1.558749e-02 3.115765e-05 0.000000e+00  -1.559759e-02 6.417711e-10 0.000000e+00  -1.558749e-02 -3.115637e-05 0.000000e+00  -1.555721e-02 -6.225332e-05 0.000000e+00  -1.550681e-02 -9.322217e-05 0.000000e+00  -1.543640e-02 -1.239949e-04 0.000000e+00  -1.534612e-02 -1.545116e-04 0.000000e+00  -1.523615e-02 -1.847120e-04 0.000000e+00  -1.510673e-02 -2.145282e-04 0.000000e+00  -1.495814e-02 -2.438925e-04 0.000000e+00  -1.479069e-02 -2.727448e-04 0.000000e+00  -1.460470e-02 -3.010248e-04 0.000000e+00  -1.440059e-02 -3.286651e-04 0.000000e+00  -1.417882e-02 -3.555985e-04 0.000000e+00  -1.393985e-02 -3.817650e-04 0.000000e+00  -1.368416e-02 -4.071045e-04 0.000000e+00  -1.341235e-02 -4.315503e-04 0.000000e+00  -1.312504e-02 -4.550365e-04 0.000000e+00  -1.282286e-02 -4.775036e-04 0.000000e+00  -1.250643e-02 -4.988919e-04 0.000000e+00  -1.217652e-02 -5.191366e-04 0.000000e+00  -1.183394e-02 -5.381738e-04 0.000000e+00  -1.147945e-02 -5.559454e-04 0.000000e+00  -1.111383e-02 -5.723931e-04 0.000000e+00  -1.073802e-02 -5.874550e-04 0.000000e+00  -1.035297e-02 -6.010710e-04 0.000000e+00  -9.959594e-03 -6.131852e-04 0.000000e+00  -9.558830e-03 -6.237424e-04 0.000000e+00  -9.151754e-03 -6.326856e-04 0.000000e+00  -8.739478e-03 -6.399601e-04 0.000000e+00  -8.323043e-03 -6.455149e-04 0.000000e+00  -7.903521e-03 -6.492996e-04 0.000000e+00  -7.482122e-03 -6.512650e-04 0.000000e+00  -7.060086e-03 -6.513648e-04 0.000000e+00  -6.638574e-03 -6.495555e-04 0.000000e+00  -6.218770e-03 -6.457957e-0