<?xml version="1.0"?>
<VTKFile type="UnstructuredGrid"  version="0.1"  >
<UnstructuredGrid>
<Piece  NumberOfPoints="16641" NumberOfCells="32768">
<Points>
<DataArray  type="Float32"  NumberOfComponents="3"  format="ascii">0 0 0  0.0078125 0 0  0.015625 0 0  0.0234375 0 0  0.03125 0 0  0.0390625 0 0  0.046875 0 0  0.0546875 0 0  0.0625 0 0  0.0703125 0 0  0.078125 0 0  0.0859375 0 0  0.09375 0 0  0.101562 0 0  0.109375 0 0  0.117188 0 0  0.125 0 0  0.132812 0 0  0.140625 0 0  0.148438 0 0  0.15625 0 0  0.164062 0 0  0.171875 0 0  0.179688 0 0  0.1875 0 0  0.195312 0 0  0.203125 0 0  0.210938 0 0  0.21875 0 0  0.226562 0 0  0.234375 0 0  0.242188 0 0  0.25 0 0  0.257812 0 0  0.265625 0 0  0.273438 0 0  0.28125 0 0  0.289062 0 0  0.296875 0 0  0.304688 0 0  0.3125 0 0  0.320312 0 0  0.328125 0 0  0.335938 0 0  0.34375 0 0  0.351562 0 0  0.359375 0 0  0.367188 0 0  0.375 0 0  0.382812 0 0  0.390625 0 0  0.398438 0 0  0.40625 0 0  0.414062 0 0  0.421875 0 0  0.429688 0 0  0.4375 0 0  0.445312 0 0  0.453125 0 0  0.460938 0 0  0.46875 0 0  0.476562 0 0  0.484375 0 0  0.492188 0 0  0.5 0 0  0.507812 0 0  0.515625 0 0  0.523438 0 0  0.53125 0 0  0.539062 0 0  0.546875 0 0  0.554688 0 0  0.5625 0 0  0.570312 0 0  0.578125 0 0  0.585938 0 0  0.59375 0 0  0.601562 0 0  0.609375 0 0  0.617188 0 0  0.625 0 0  0.632812 0 0  0.640625 0 0  0.648438 0 0  0.65625 0 0  0.664062 0 0  0.671875 0 0  0.679688 0 0  0.6875 0 0  0.695312 0 0  0.703125 0 0  0.710938 0 0  0.71875 0 0  0.726562 0 0  0.734375 0 0  0.742188 0 0  0.75 0 0  0.757812 0 0  0.765625 0 0  0.773438 0 0  0.78125 0 0  0.789062 0 0  0.796875 0 0  0.804688 0 0  0.8125 0 0  0.820312 0 0  0.828125 0 0  0.835938 0 0  0.84375 0 0  0.851562 0 0  0.859375 0 0  0.867188 0 0  0.875 0 0  0.882812 0 0  0.890625 0 0  0.898438 0 0  0.90625 0 0  0.914062 0 0  0.921875 0 0  0.929688 0 0  0.9375 0 0  0.945312 0 0  0.953125 0 0  0.960938 0 0  0.96875 0 0  0.976562 0 0  0.984375 0 0  0.992188 0 0  1 0 0  0 0.0078125 0  0.0078125 0.0078125 0  0.015625 0.0078125 0  0.0234375 0.0078125 0  0.03125 0.0078125 0  0.0390625 0.0078125 0  0.046875 0.0078125 0  0.0546875 0.0078125 0  0.0625 0.0078125 0  0.0703125 0.0078125 0  0.078125 0.0078125 0  0.0859375 0.0078125 0  0.09375 0.0078125 0  0.101562 0.0078125 0  0.109375 0.0078125 0  0.117188 0.0078125 0  0.125 0.0078125 0  0.132812 0.0078125 0  0.140625 0.0078125 0  0.148438 0.0078125 0  0.15625 0.0078125 0  0.164062 0.0078125 0  0.171875 0.0078125 0  0.179688 0.0078125 0  0.1875 0.0078125 0  0.195312 0.0078125 0  0.203125 0.0078125 0  0.210938 0.0078125 0  0.21875 0.0078125 0  0.226562 0.0078125 0  0.234375 0.0078125 0  0.242188 0.0078125 0  0.25 0.0078125 0  0.257812 0.0078125 0  0.265625 0.0078125 0  0.273438 0.0078125 0  0.28125 0.0078125 0  0.289062 0.0078125 0  0.296875 0.0078125 0  0.304688 0.0078125 0  0.3125 0.0078125 0  0.320312 0.0078125 0  0.328125 0.0078125 0  0.335938 0.0078125 0  0.34375 0.0078125 0  0.351562 0.0078125 0  0.359375 0.0078125 0  0.367188 0.0078125 0  0.375 0.0078125 0  0.382812 0.0078125 0  0.390625 0.0078125 0  0.398438 0.0078125 0  0.40625 0.0078125 0  0.414062 0.0078125 0  0.421875 0.0078125 0  0.429688 0.0078125 0  0.4375 0.0078125 0  0.445312 0.0078125 0  0.453125 0.0078125 0  0.460938 0.0078125 0  0.46875 0.0078125 0  0.476562 0.0078125 0  0.484375 0.0078125 0  0.492188 0.0078125 0  0.5 0.0078125 0  0.507812 0.0078125 0  0.515625 0.0078125 0  0.523438 0.0078125 0  0.53125 0.0078125 0  0.539062 0.0078125 0  0.546875 0.0078125 0  0.554688 0.0078125 0  0.5625 0.0078125 0  0.570312 0.0078125 0  0.578125 0.0078125 0  0.585938 0.0078125 0  0.59375 0.0078125 0  0.601562 0.0078125 0  0.609375 0.0078125 0  0.617188 0.0078125 0  0.625 0.0078125 0  0.632812 0.0078125 0  0.640625 0.0078125 0  0.648438 0.0078125 0  0.65625 0.0078125 0  0.664062 0.0078125 0  0.671875 0.0078125 0  0.679688 0.0078125 0  0.6875 0.0078125 0  0.695312 0.0078125 0  0.703125 0.0078125 0  0.710938 0.0078125 0  0.71875 0.0078125 0  0.726562 0.0078125 0  0.734375 0.0078125 0  0.742188 0.0078125 0  0.75 0.0078125 0  0.757812 0.0078125 0  0.765625 0.0078125 0  0.773438 0.0078125 0  0.78125 0.0078125 0  0.789062 0.0078125 0  0.796875 0.0078125 0  0.804688 0.0078125 0  0.8125 0.0078125 0  0.820312 0.0078125 0  0.828125 0.0078125 0  0.835938 0.0078125 0  0.84375 0.0078125 0  0.851562 0.0078125 0  0.859375 0.0078125 0  0.867188 0.0078125 0  0.875 0.0078125 0  0.882812 0.0078125 0  0.890625 0.0078125 0  0.898438 0.0078125 0  0.90625 0.0078125 0  0.914062 0.0078125 0  0.921875 0.0078125 0  0.929688 0.0078125 0  0.9375 0.0078125 0  0.945312 0.0078125 0  0.953125 0.0078125 0  0.960938 0.0078125 0  0.96875 0.0078125 0  0.976562 0.0078125 0  0.984375 0.0078125 0  0.992188 0.0078125 0  1 0.0078125 0  0 0.015625 0  0.0078125 0.015625 0  0.015625 0.015625 0  0.0234375 0.015625 0  0.03125 0.015625 0  0.0390625 0.015625 0  0.046875 0.015625 0  0.0546875 0.015625 0  0.0625 0.015625 0  0.0703125 0.015625 0  0.078125 0.015625 0  0.0859375 0.015625 0  0.09375 0.015625 0  0.101562 0.015625 0  0.109375 0.015625 0  0.117188 0.015625 0  0.125 0.015625 0  0.132812 0.015625 0  0.140625 0.015625 0  0.148438 0.015625 0  0.15625 0.015625 0  0.164062 0.015625 0  0.171875 0.015625 0  0.179688 0.015625 0  0.1875 0.015625 0  0.195312 0.015625 0  0.203125 0.015625 0  0.210938 0.015625 0  0.21875 0.015625 0  0.226562 0.015625 0  0.234375 0.015625 0  0.242188 0.015625 0  0.25 0.015625 0  0.257812 0.015625 0  0.265625 0.015625 0  0.273438 0.015625 0  0.28125 0.015625 0  0.289062 0.015625 0  0.296875 0.015625 0  0.304688 0.015625 0  0.3125 0.015625 0  0.320312 0.015625 0  0.328125 0.015625 0  0.335938 0.015625 0  0.34375 0.015625 0  0.351562 0.015625 0  0.359375 0.015625 0  0.367188 0.015625 0  0.375 0.015625 0  0.382812 0.015625 0  0.390625 0.015625 0  0.398438 0.015625 0  0.40625 0.015625 0  0.414062 0.015625 0  0.421875 0.015625 0  0.429688 0.015625 0  0.4375 0.015625 0  0.445312 0.015625 0  0.453125 0.015625 0  0.460938 0.015625 0  0.46875 0.015625 0  0.476562 0.015625 0  0.484375 0.015625 0  0.492188 0.015625 0  0.5 0.015625 0  0.507812 0.015625 0  0.515625 0.015625 0  0.523438 0.015625 0  0.53125 0.015625 0  0.539062 0.015625 0  0.546875 0.015625 0  0.554688 0.015625 0  0.5625 0.015625 0  0.570312 0.015625 0  0.578125 0.015625 0  0.585938 0.015625 0  0.59375 0.015625 0  0.601562 0.015625 0  0.609375 0.015625 0  0.617188 0.015625 0  0.625 0.015625 0  0.632812 0.015625 0  0.640625 0.015625 0  0.648438 0.015625 0  0.65625 0.015625 0  0.664062 0.015625 0  0.671875 0.015625 0  0.679688 0.015625 0  0.6875 0.015625 0  0.695312 0.015625 0  0.703125 0.015625 0  0.710938 0.015625 0  0.71875 0.015625 0  0.726562 0.015625 0  0.734375 0.015625 0  0.742188 0.015625 0  0.75 0.015625 0  0.757812 0.015625 0  0.765625 0.015625 0  0.773438 0.015625 0  0.78125 0.015625 0  0.789062 0.015625 0  0.796875 0.015625 0  0.804688 0.015625 0  0.8125 0.015625 0  0.820312 0.015625 0  0.828125 0.015625 0  0.835938 0.015625 0  0.84375 0.015625 0  0.851562 0.015625 0  0.859375 0.015625 0  0.867188 0.015625 0  0.875 0.015625 0  0.882812 0.015625 0  0.890625 0.015625 0  0.898438 0.015625 0  0.90625 0.015625 0  0.914062 0.015625 0  0.921875 0.015625 0  0.929688 0.015625 0  0.9375 0.015625 0  0.945312 0.015625 0  0.953125 0.015625 0  0.960938 0.015625 0  0.96875 0.015625 0  0.976562 0.015625 0  0.984375 0.015625 0  0.992188 0.015625 0  1 0.015625 0  0 0.0234375 0  0.0078125 0.0234375 0  0.015625 0.0234375 0  0.0234375 0.0234375 0  0.03125 0.0234375 0  0.0390625 0.0234375 0  0.046875 0.0234375 0  0.0546875 0.0234375 0  0.0625 0.0234375 0  0.0703125 0.0234375 0  0.078125 0.0234375 0  0.0859375 0.0234375 0  0.09375 0.0234375 0  0.101562 0.0234375 0  0.109375 0.0234375 0  0.117188 0.0234375 0  0.125 0.0234375 0  0.132812 0.0234375 0  0.140625 0.0234375 0  0.148438 0.0234375 0  0.15625 0.0234375 0  0.164062 0.0234375 0  0.171875 0.0234375 0  0.179688 0.0234375 0  0.1875 0.0234375 0  0.195312 0.0234375 0  0.203125 0.0234375 0  0.210938 0.0234375 0  0.21875 0.0234375 0  0.226562 0.0234375 0  0.234375 0.0234375 0  0.242188 0.0234375 0  0.25 0.0234375 0  0.257812 0.0234375 0  0.265625 0.0234375 0  0.273438 0.0234375 0  0.28125 0.0234375 0  0.289062 0.0234375 0  0.296875 0.0234375 0  0.304688 0.0234375 0  0.3125 0.0234375 0  0.320312 0.0234375 0  0.328125 0.0234375 0  0.335938 0.0234375 0  0.34375 0.0234375 0  0.351562 0.0234375 0  0.359375 0.0234375 0  0.367188 0.0234375 0  0.375 0.0234375 0  0.382812 0.0234375 0  0.390625 0.0234375 0  0.398438 0.0234375 0  0.40625 0.0234375 0  0.414062 0.0234375 0  0.421875 0.0234375 0  0.429688 0.0234375 0  0.4375 0.0234375 0  0.445312 0.0234375 0  0.453125 0.0234375 0  0.460938 0.0234375 0  0.46875 0.0234375 0  0.476562 0.0234375 0  0.484375 0.0234375 0  0.492188 0.0234375 0  0.5 0.0234375 0  0.507812 0.0234375 0  0.515625 0.0234375 0  0.523438 0.0234375 0  0.53125 0.0234375 0  0.539062 0.0234375 0  0.546875 0.0234375 0  0.554688 0.0234375 0  0.5625 0.0234375 0  0.570312 0.0234375 0  0.578125 0.0234375 0  0.585938 0.0234375 0  0.59375 0.0234375 0  0.601562 0.0234375 0  0.609375 0.0234375 0  0.617188 0.0234375 0  0.625 0.0234375 0  0.632812 0.0234375 0  0.640625 0.0234375 0  0.648438 0.0234375 0  0.65625 0.0234375 0  0.664062 0.0234375 0  0.671875 0.0234375 0  0.679688 0.0234375 0  0.6875 0.0234375 0  0.695312 0.0234375 0  0.703125 0.0234375 0  0.710938 0.0234375 0  0.71875 0.0234375 0  0.726562 0.0234375 0  0.734375 0.0234375 0  0.742188 0.0234375 0  0.75 0.0234375 0  0.757812 0.0234375 0  0.765625 0.0234375 0  0.773438 0.0234375 0  0.78125 0.0234375 0  0.789062 0.0234375 0  0.796875 0.0234375 0  0.804688 0.0234375 0  0.8125 0.0234375 0  0.820312 0.0234375 0  0.828125 0.0234375 0  0.835938 0.0234375 0  0.84375 0.0234375 0  0.851562 0.0234375 0  0.859375 0.0234375 0  0.867188 0.0234375 0  0.875 0.0234375 0  0.882812 0.0234375 0  0.890625 0.0234375 0  0.898438 0.0234375 0  0.90625 0.0234375 0  0.914062 0.0234375 0  0.921875 0.0234375 0  0.929688 0.0234375 0  0.9375 0.0234375 0  0.945312 0.0234
[...]
<PointData  Vectors="u"> 
<DataArray  type="Float32"  Name="u"  NumberOfComponents="3" format="ascii">0.000000e+00 0.000000e+00 0.000000e+00  0.000000e+00 0.000000e+00 0.000000e+00  0.000000e+00 0.000000e+00 0.000000e+00  0.000000e+00 0.000000e+00 0.000000e+00  0.000000e+00 0.000000e+00 0.000000e+00  0.000000e+00 0.000000e+00 0.000000e+00  0.000000e+00 0.000000e+00 0.000000e+00  0.000000e+00 0.000000e+00 0.000000e+00  0.000000e+00 0.000000e+00 0.000000e+00  0.000000e+00 0.000000e+00 0.000000e+00  0.000000e+00 0.000000e+00 0.000000e+00  0.000000e+00 0.000000e+00 0.000000e+00  0.000000e+00 0.000000e+00 0.000000e+00  0.000000e+00 0.000000e+00 0.000000e+00  0.000000e+00 0.000000e+00 0.000000e+00  0.000000e+00 0.000000e+00 0.000000e+00  0.000000e+00 0.000000e+00 0.000000e+00  0.000000e+00 0.000000e+00 0.000000e+00  0.000000e+00 0.000000e+00 0.000000e+00  0.000000e+00 0.000000e+00 0.000000e+00  0.000000e+00 0.000000e+00 0.000000e+00  0.000000e+00 0.000000e+00 0.000000e+00  0.000000e+00 0.000000e+00 0.000000e+00  0.000000e+00 0.000000e+00 0.000000e+00  0.000000e+00 0.000000e+00 0.000000e+00  0.000000e+00 0.000000e+00 0.000000e+00  0.000000e+00 0.000000e+00 0.000000e+00  0.000000e+00 0.000000e+00 0.000000e+00  0.000000e+00 0.000000e+00 0.000000e+00  0.000000e+00 0.000000e+00 0.000000e+00  0.000000e+00 0.000000e+00 0.000000e+00  0.000000e+00 0.000000e+00 0.000000e+00  0.000000e+00 0.000000e+00 0.000000e+00  0.000000e+00 0.000000e+00 0.000000e+00  0.000000e+00 0.000000e+00 0.000000e+00  0.000000e+00 0.000000e+00 0.000000e+00  0.000000e+00 0.000000e+00 0.000000e+00  0.000000e+00 0.000000e+00 0.000000e+00  0.000000e+00 0.000000e+00 0.000000e+00  0.000000e+00 0.000000e+00 0.000000e+00  0.000000e+00 0.000000e+00 0.000000e+00  0.000000e+00 0.000000e+00 0.000000e+00  0.000000e+00 0.000000e+00 0.000000e+00  0.000000e+00 0.000000e+00 0.000000e+00  0.000000e+00 0.000000e+00 0.000000e+00  0.000000e+00 0.000000e+00 0.000000e+00  0.000000e+00 0.000000e+00 0.000000e+00  0.000000e+00 0.000000e+00 0.000000e+00  0.000000e+00 0.000000e+00 0.000000e+00  0.000000e+00 0.000000e+00 0.000000e+00  0.000000e+00 0.000000e+00 0.000000e+00  0.000000e+00 0.000000e+00 0.000000e+00  0.000000e+00 0.000000e+00 0.000000e+00  0.000000e+00 0.000000e+00 0.000000e+00  0.000000e+00 0.000000e+00 0.000000e+00  0.000000e+00 0.000000e+00 0.000000e+00  0.000000e+00 0.000000e+00 0.000000e+00  0.000000e+00 0.000000e+00 0.000000e+00  0.000000e+00 0.000000e+00 0.000000e+00  0.000000e+00 0.000000e+00 0.000000e+00  0.000000e+00 0.000000e+00 0.000000e+00  0.000000e+00 0.000000e+00 0.000000e+00  0.000000e+00 0.000000e+00 0.000000e+00  0.000000e+00 0.000000e+00 0.000000e+00  0.000000e+00 0.000000e+00 0.000000e+00  0.000000e+00 0.000000e+00 0.000000e+00  0.000000e+00 0.000000e+00 0.000000e+00  0.000000e+00 0.000000e+00 0.000000e+00  0.000000e+00 0.000000e+00 0.000000e+00  0.000000e+00 0.000000e+00 0.000000e+00  0.000000e+00 0.000000e+00 0.000000e+00  0.000000e+00 0.000000e+00 0.000000e+00  0.000000e+00 0.000000e+00 0.000000e+00  0.000000e+00 0.000000e+00 0.000000e+00  0.000000e+00 0.000000e+00 0.000000e+00  0.000000e+00 0.000000e+00 0.000000e+00  0.000000e+00 0.000000e+00 0.000000e+00  0.000000e+00 0.000000e+00 0.000000e+00  0.000000e+00 0.000000e+00 0.000000e+00  0.000000e+00 0.000000e+00 0.000000e+00  0.000000e+00 0.000000e+00 0.000000e+00  0.000000e+00 0.000000e+00 0.000000e+00  0.000000e+00 0.000000e+00 0.000000e+00  0.000000e+00 0.000000e+00 0.000000e+00  0.000000e+00 0.000000e+00 0.000000e+00  0.000000e+00 0.000000e+00 0.000000e+00  0.000000e+00 0.000000e+00 0.000000e+00  0.000000e+00 0.000000e+00 0.000000e+00  0.000000e+00 0.000000e+00 0.000000e+00  0.000000e+00 0.000000e+00 0.000000e+00  0.000000e+00 0.000000e+00 0.000000e+00  0.000000e+00 0.000000e+00 0.000000e+00  0.000000e+00 0.000000e+00 0.000000e+00  0.000000e+00 0.000000e+00 0.000000e+00  0.000000e+00 0.000000e+00 0.000000e+00  0.000000e+00 0.000000e+00 0.000000e+00  0.000000e+00 0.000000e+00 0.000000e+00  0.000000e+00 0.000000e+00 0.000000e+00  0.000000e+00 0.000000e+00 0.000000e+00  0.000000e+00 0.000000e+00 0.000000e+00  0.000000e+00 0.000000e+00 0.000000e+00  0.000000e+00 0.000000e+00 0.000000e+00  0.000000e+00 0.000000e+00 0.000000e+00  0.000000e+00 0.000000e+00 0.000000e+00  0.000000e+00 0.000000e+00 0.000000e+00  0.000000e+00 0.000000e+00 0.000000e+00  0.000000e+00 0.000000e+00 0.000000e+00  0.000000e+00 0.000000e+00 0.000000e+00  0.000000e+00 0.000000e+00 0.000000e+00  0.000000e+00 0.000000e+00 0.000000e+00  0.000000e+00 0.000000e+00 0.000000e+00  0.000000e+00 0.000000e+00 0.000000e+00  0.000000e+00 0.000000e+00 0.000000e+00  0.000000e+00 0.000000e+00 0.000000e+00  0.000000e+00 0.000000e+00 0.000000e+00  0.000000e+00 0.000000e+00 0.000000e+00  0.000000e+00 0.000000e+00 0.000000e+00  0.000000e+00 0.000000e+00 0.000000e+00  0.000000e+00 0.000000e+00 0.000000e+00  0.000000e+00 0.000000e+00 0.000000e+00  0.000000e+00 0.000000e+00 0.000000e+00  0.000000e+00 0.000000e+00 0.000000e+00  0.000000e+00 0.000000e+00 0.000000e+00  0.000000e+00 0.000000e+00 0.000000e+00  0.000000e+00 0.000000e+00 0.000000e+00  0.000000e+00 0.000000e+00 0.000000e+00  0.000000e+00 0.000000e+00 0.000000e+00  0.000000e+00 0.000000e+00 0.000000e+00  0.000000e+00 0.000000e+00 0.000000e+00  0.000000e+00 0.000000e+00 0.000000e+00  5.197634e-06 -5.197642e-06 0.000000e+00  1.858784e-05 -9.093823e-06 0.000000e+00  3.597027e-05 -1.004100e-05 0.000000e+00  5.277491e-05 -8.851672e-06 0.000000e+00  6.579371e-05 -6.215628e-06 0.000000e+00  7.277845e-05 -2.631849e-06 0.000000e+00  7.224440e-05 1.554574e-06 0.000000e+00  6.324451e-05 6.106390e-06 0.000000e+00  4.521388e-05 1.085676e-05 0.000000e+00  1.786353e-05 1.568630e-05 0.000000e+00  -1.889402e-05 2.050814e-05 0.000000e+00  -6.499702e-05 2.525815e-05 0.000000e+00  -1.202682e-04 2.988815e-05 0.000000e+00  -1.844613e-04 3.436301e-05 0.000000e+00  -2.572478e-04 3.865486e-05 0.000000e+00  -3.382461e-04 4.274256e-05 0.000000e+00  -4.270569e-04 4.661111e-05 0.000000e+00  -5.232568e-04 5.024932e-05 0.000000e+00  -6.263778e-04 5.364816e-05 0.000000e+00  -7.359324e-04 5.680117e-05 0.000000e+00  -8.514497e-04 5.970471e-05 0.000000e+00  -9.724548e-04 6.235670e-05 0.000000e+00  -1.098438e-03 6.475565e-05 0.000000e+00  -1.228885e-03 6.690134e-05 0.000000e+00  -1.363316e-03 6.879506e-05 0.000000e+00  -1.501255e-03 7.043881e-05 0.000000e+00  -1.642193e-03 7.183483e-05 0.000000e+00  -1.785628e-03 7.298606e-05 0.000000e+00  -1.931098e-03 7.389630e-05 0.000000e+00  -2.078151e-03 7.456969e-05 0.000000e+00  -2.226304e-03 7.501059e-05 0.000000e+00  -2.375085e-03 7.522379e-05 0.000000e+00  -2.524066e-03 7.521450e-05 0.000000e+00  -2.672834e-03 7.498811e-05 0.000000e+00  -2.820945e-03 7.455027e-05 0.000000e+00  -2.967967e-03 7.390698e-05 0.000000e+00  -3.113519e-03 7.306426e-05 0.000000e+00  -3.257231e-03 7.202826e-05 0.000000e+00  -3.398709e-03 7.080548e-05 0.000000e+00  -3.537570e-03 6.940268e-05 0.000000e+00  -3.673483e-03 6.782638e-05 0.000000e+00  -3.806129e-03 6.608314e-05 0.000000e+00  -3.935164e-03 6.418004e-05 0.000000e+00  -4.060265e-03 6.212432e-05 0.000000e+00  -4.181152e-03 5.992276e-05 0.000000e+00  -4.297557e-03 5.758215e-05 0.000000e+00  -4.409196e-03 5.510992e-05 0.000000e+00  -4.515803e-03 5.251360e-05 0.000000e+00  -4.617152e-03 4.980009e-05 0.000000e+00  -4.713030e-03 4.697628e-05 0.000000e+00  -4.803213e-03 4.404979e-05 0.000000e+00  -4.887494e-03 4.102832e-05 0.000000e+00  -4.965703e-03 3.791880e-05 0.000000e+00  -5.037681e-03 3.472814e-05 0.000000e+00  -5.103265e-03 3.146407e-05 0.000000e+00  -5.162310e-03 2.813436e-05 0.000000e+00  -5.214700e-03 2.474592e-05 0.000000e+00  -5.260332e-03 2.130567e-05 0.000000e+00  -5.299104e-03 1.782136e-05 0.000000e+00  -5.330931e-03 1.430080e-05 0.000000e+00  -5.355755e-03 1.075089e-05 0.000000e+00  -5.373525e-03 7.178501e-06 0.000000e+00  -5.384202e-03 3.591434e-06 0.000000e+00  -5.387764e-03 -2.505384e-09 0.000000e+00  -5.384205e-03 -3.596437e-06 0.000000e+00  -5.373531e-03 -7.183487e-06 0.000000e+00  -5.355764e-03 -1.075585e-05 0.000000e+00  -5.330943e-03 -1.430574e-05 0.000000e+00  -5.299118e-03 -1.782625e-05 0.000000e+00  -5.260349e-03 -2.131051e-05 0.000000e+00  -5.214720e-03 -2.475071e-05 0.000000e+00  -5.162333e-03 -2.813908e-05 0.000000e+00  -5.103291e-03 -3.146871e-05 0.000000e+00  -5.037709e-03 -3.473270e-05 0.000000e+00  -4.965734e-03 -3.792326e-05 0.000000e+00  -4.887527e-03 -4.103269e-05 0.000000e+00  -4.803249e-03 -4.405405e-05 0.000000e+00  -4.713068e-03 -4.698042e-05 0.000000e+00  -4.617193e-03 -4.980411e-05 0.000000e+00  -4.515846e-03 -5.251750e-05 0.000000e+00  -4.409241e-03 -5.511369e-05 0.000000e+00  -4.297604e-03 -5.758579e-05 0.000000e+00  -4.181201e-03 -5.992626e-05 0.000000e+00  -4.060316e-03 -6.212768e-05 0.000000e+00  -3.935216e-03 -6.418327e-05 0.000000e+00  -3.806182e-03 -6.608622e-05 0.000000e+00  -3.673537e-03 -6.782931e-05 0.000000e+00  -3.537625e-03 -6.940546e-05 0.000000e+00  -3.398763e-03 -7.080810e-05 0.000000e+00  -3.257286e-03 -7.203071e-05 0.000000e+00  -3.113573e-03 -7.306654e-05 0.000000e+00  -2.968020e-03 -7.390906e-05 0.000000e+00  -2.820996e-03 -7.455213e-05 0.000000e+00  -2.672884e-03 -7.498973e-05 0.000000e+00  -2.524115e-03 -7.521585e-05 0.000000e+00  -2.375130e-03 -7.522484e-05 0.000000e+00  -2.226347e-03 -7.501129e-05 0.000000e+00  -2.078191e-03 -7.457000e-05 0.000000e+00  -1.931135e-03 -7.389615e-05 0.000000e+00  -1.785661e-03 -7.298539e-05 0.000000e+00  -1.642222e-03 -7.183359e-05 0.000000e+00  -1.501280e-03 -7.043692e-05 0.000000e+00  -1.363338e-03 -6.879244e-05 0.000000e+00  -1.228903e-03 -6.689792e-05 0.000000e+00  -1.098452e-03 -6.475134e-05 0.000000e+00  -9.724647e-04 -6.235142e-05 0.000000e+00  -8.514561e-04 -5.969837e-05 0.000000e+00  -7.359354e-04 -5.679366e-05 0.000000e+00  -6.263779e-04 -5.363941e-05 0.000000e+00  -5.232542e-04 -5.023923e-05 0.000000e+00  -4.270519e-04 -4.659958e-05 0.000000e+00  -3.382391e-04 -4.272949e-05 0.000000e+00  -2.572392e-04 -3.864016e-05 0.000000e+00  -1.844514e-04 -3.434659e-05 0.000000e+00  -1.202572e-04 -2.986992e-05 0.000000e+00  -6.498520e-05 -2.523804e-05 0.000000e+00  -1.888423e-05 -2.048647e-05 0.000000e+00  1.787652e-05 -1.566251e-05 0.000000e+00  4.522889e-05 -1.083106e-05 0.000000e+00  6.325875e-05 -6.079902e-06 0.000000e+00  7.225923e-05 -1.528330e-06 0.000000e+00  7.279450e-05 2.656349e-06 0.000000e+00  6.581027e-05 6.234082e-06 0.000000e+00  5.279220e-05 8.856816e-06 0.000000e+00  3.597110e-05 1.001570e-05 0.000000e+00  1.864019e-05 9.011173e-06 0.000000e+00  5.096285e-06 5.096676e-06 0.000000e+00  0.000000e+00 0.000000e+00 0.000000e+00  0.000000e+00 0.000000e+00 0.000000e+00  9.099327e-06 -1.859119e-05 0.000000e+00  2.942968e-05 -2.941449e-05 0.000000e+00  5.338198e-05 -3.149427e-05 0.000000e+00  7.477472e-05 -2.661434e-05 0.000000e+00  8.878039e-05 -1.672495e-05 0.000000e+00  9.175639e-05 -3.389789e-06 0.000000e+00  8.112100e-05 1.223575e-05 0.000000e+00  5.511658e-05 2.931014e-05 0.000000e+00  1.262417e-05 4.721838e-05 0.000000e+00  -4.698809e-05 6.550710e-05 0.000000e+00  -1.239803e-04 8.383845e-05 0.000000e+00  -2.183275e-04 1.019581e-04 0.000000e+00  -3.297774e-04 1.196720e-04 0.000000e+00  -4.579385e-04 1.368359e-04 0.000000e+00  -6.022509e-04 1.533344e-04 0.000000e+00  -7.620437e-04 1.690786e-04 0.000000e+00  -9.366051e-04 1.840042e-04 0.000000e+00  -1.125169e-03 1.980623e-04 0.000000e+00  -1.326875e-03 2.112131e-04 0.000000e+00  -1.540820e-03 2.234273e-04 0.000000e+00  -1.766129e-03 2.346872e-04 0.000000e+00  -2.001911e-03 2.449815e-04 0.000000e+00  -2.247207e-03 2.543016e-04 0.000000e+00  -2.501044e-03 2.626443e-04 0.000000e+00  -2.762511e-03 2.700126e-04 0.000000e+00  -3.030704e-03 2.764124e-04 0.000000e+00  -3.304652e-03 2.818508e-04 0.000000e+00  -3.583393e-03 2.863380e-04 0.000000e+00  -3.866044e-03 2.898874e-04 0.000000e+00  -4.151736e-03 2.925143e-04 0.000000e+00  -4.439542e-03 2.942346e-04 0.000000e+00  -4.728551e-03 2.950662e-04 0.000000e+00  -5.017940e-03 2.950289e-04 0.000000e+00  -5.306910e-03 2.941429e-04 0.000000e+00  -5.594604e-03 2.924299e-04 0.000000e+00  -5.880188e-03 2.899128e-04 0.000000e+00  -6.162923e-03 2.866148e-04 0.000000e+00  -6.442092e-03 2.825595e-04 0.000000e+00  -6.716930e-03 2.777720e-04 0.000000e+00  -6.986697e-03 2.722786e-04 0.000000e+00  -7.250748e-03 2.661045e-04 0.000000e+00  -7.508463e-03 2.592752e-04 0.000000e+00  -7.759177e-03 2.518183e-04 0.000000e+00  -8.002258e-03 2.437619e-04 0.000000e+00  -8.237161e-03 2.351327e-04 0.000000e+00  -8.463367e-03 2.259571e-04 0.000000e+00  -8.680323e-03 2.162640e-04 0.000000e+00  -8.887509e-03 2.060831e-04 0.000000e+00  -9.084485e-03 1.954413e-04 0.000000e+00  -9.270837e-03 1.843657e-04 0.000000e+00  -9.446126e-03 1.728862e-04 0.000000e+00  -9.609951e-03 1.610328e-04 0.000000e+00  -9.761978e-03 1.488330e-04 0.000000e+00  -9.901899e-03 1.363138e-04 0.000000e+00  -1.002939e-02 1.235056e-04 0.000000e+00  -1.014418e-02 1.104389e-04 0.000000e+00  -1.024603e-02 9.714097e-05 0.000000e+00  -1.033475e-02 8.363899e-05 0.000000e+00  -1.041013e-02 6.996352e-05 0.000000e+00  -1.047201e-02 5.614525e-05 0.000000e+00  -1.052027e-02 4.221136e-05 0.000000e+00  -1.055482e-02 2.818893e-05 0.000000e+00  -1.057558e-02 1.410868e-05 0.000000e+00  -1.058250e-02 1.312077e-09 0.000000e+00  -1.057558e-02 -1.410605e-05 0.000000e+00  -1.055483e-02 -2.818631e-05 0.000000e+00  -1.052029e-02 -4.220874e-05 0.000000e+00  -1.047203e-02 -5.614264e-05 0.000000e+00  -1.041015e-02 -6.996091e-05 0.000000e+00  -1.033478e-02 -8.363639e-05 0.000000e+00  -1.024607e-02 -9.713839e-05 0.000000e+00  -1.014423e-02 -1.104363e-04 0.000000e+00  -1.002944e-02 -1.235030e-04 0.000000e+00  -9.901954e-03 -1.363113e-04 0.000000e+00  -9.762039e-03 -1.488305e-04 0.000000e+00  -9.610017e-03 -1.610304e-04 0.000000e+00  -9.446197e-03 -1.728838e-04 0.000000e+00  -9.270912e-03 -1.843635e-04 0.000000e+00  -9.084565e-03 -1.954392e-04 0.000000e+00  -8.887593e-03 -2.060811e-04 0.000000e+00  -8.680411e-03 -2.162623e-04 0.000000e+00  -8.463459e-03 -2.259555e-04 0.000000e+00  -8.237257e-03 -2.351314e-04 0.000000e+00  -8.002356e-03 -2.437609e-04 0.000000e+00  -7.759278e-03 -2.518176e-04 0.000000e+00  -7.508566e-03 -2.592749e-04 0.000000e+00  -7.250853e-03 -2.661046e-04 0.000000e+00  -6.986802e-03 -2.722791e-04 0.000000e+00  -6.717035e-03 -2.777731e-04 0.000000e+00  -6.442197e-03 -2.825611e-04 0.000000e+00  -6.163027e-03 -2.866169e-04 0.000000e+00  -5.880290e-03 -2.899155e-04 0.000000e+00  -5.594704e-03 -2.924332e-04 0.000000e+00  -5.307006e-03 -2.941467e-04 0.000000e+00  -5.018032e-03 -2.950331e-04 0.000000e+00  -4.728638e-03 -2.950709e-04 0.000000e+00  -4.439624e-03 -2.942397e-04 0.000000e+00  -4.151812e-03 -2.925197e-04 0.000000e+00  -3.866113e-03 -2.898930e-04 0.000000e+00  -3.583455e-03 -2.863436e-04 0.000000e+00  -3.304707e-03 -2.818565e-04 0.000000e+00  -3.030751e-03 -2.764179e-04 0.000000e+00  -2.762551e-03 -2.700177e-04 0.000000e+00  -2.501077e-03 -2.626490e-04 0.000000e+00  -2.247232e-03 -2.543056e-04 0.000000e+00  -2.001929e-03 -2.449848e-04 0.000000e+00  -1.766140e-03 -2.346896e-04 0.000000e+00  -1.540825e-03 -2.234287e-04 0.000000e+00  -1.326874e-03 -2.112135e-04 0.000000e+00  -1.125163e-03 -1.980615e-04 0.000000e+00  -9.365949e-04 -1.840022e-04 0.000000e+00  -7.620297e-04 -1.690754e-04 0.000000e+00  -6.022340e-04 -1.533300e-04 0.000000e+00  -4.579192e-04 -1.368304e-04 0.000000e+00  -3.297564e-04 -1.196654e-04 0.000000e+00  -2.183056e-04 -1.019507e-04 0.000000e+00  -1.239635e-04 -8.383167e-05 0.000000e+00  -4.696597e-05 -6.549900e-05 0.000000e+00  1.264887e-05 -4.720954e-05 0.000000e+00  5.513675e-05 -2.930368e-05 0.000000e+00  8.113809e-05 -1.223265e-05 0.000000e+00  9.177181e-05 3.390424e-06 0.000000e+00  8.879040e-05 1.672170e-05 0.000000e+00  7.478177e-05 2.660604e-05 0.000000e+00  5.337804e-05 3.149147e-05 0.000000e+00  2.944318e-05 2.942858e-05 0.000000e+00  9.015425e-06 1.864286e-05 0.000000e+00  0.000000e+00 0.000000e+00 0.000000e+00  0.000000e+00 0.000000e+00 0.000000e+00  1.007243e-05 -3.600550e-05 0.000000e+00  3.160224e-05 -5.339981e-05 0.000000e+00  5.469226e-05 -5.453492e-05 0.000000e+00  7.212296e-05 -4.274871e-05 0.000000e+00  7.823912e-05 -2.131152e-05 0.000000e+00  6.866056e-05 7.038098e-06 0.000000e+00  4.012889e-05 4.015368e-05 0.000000e+00  -9.678486e-06 7.639403e-05 0.000000e+00  -8.231383e-05 1.145138e-04 0.000000e+00  -1.787113e-04 1.535666e-04 0.000000e+00  -2.993120e-04 1.928299e-04 0.000000e+00  -4.441658e-04 2.317486e-04 0.000000e+00  -6.130005e-04 2.698914e-04 0.000000e+00  -8.053430e-04 3.069331e-04 0.000000e+00  -1.020470e-03 3.426098e-04 0.000000e+00  -1.257490e-03 3.767158e-04 0.000000e+00  -1.515447e-03 4.090992e-04 0.000000e+00  -1.793298e-03 4.396432e-04 0.000000e+00  -2.089855e-03 4.682514e-04 0.000000e+00  -2.403859e-03 4.948517e-04 0.000000e+00  -2.734089e-03 5.193980e-04 0.000000e+00  -3.079294e-03 5.418590e-04 0.000000e+00  -3.438116e-03 5.622103e-04 0.000000e+00  -3.809175e-03 5.804399e-04 0.000000e+00  -4.191175e-03 5.965499e-04 0.000000e+00  -4.582826e-03 6.105492e-04 0.000000e+00  -4.982741e-03 6.224502e-04 0.000000e+00  -5.389537e-03 6.322719e-04 0.000000e+00  -5.801945e-03 6.400416e-04 0.000000e+00  -6.218718e-03 6.457901e-04 0.000000e+00  -6.638517e-03 6.495504e-04 0.000000e+00  -7.060026e-03 6.513603e-04 0.000000e+00  -7.482059e-03 6.512613e-04 0.000000e+00  -7.903455e-03 6.492967e-04 0.000000e+00  -8.322976e-03 6.455128e-04 0.000000e+00  -8.739410e-03 6.399590e-04 0.000000e+00  -9.151686e-03 6.326853e-04 0.000000e+00  -9.558763e-03 6.237429e-04 0.000000e+00  -9.959528e-03 6.131865e-04 0.000000e+00  -1.035290e-02 6.010731e-04 0.000000e+00  -1.073795e-02 5.874579e-04 0.000000e+00  -1.111377e-02 5.723966e-04 0.000000e+00  -1.147939e-02 5.559495e-04 0.000000e+00  -1.183389e-02 5.381784e-04 0.000000e+00  -1.217648e-02 5.191416e-04 0.000000e+00  -1.250639e-02 4.988973e-04 0.000000e+00  -1.282282e-02 4.775093e-04 0.000000e+00  -1.312501e-02 4.550424e-04 0.000000e+00  -1.341232e-02 4.315564e-04 0.000000e+00  -1.368414e-02 4.071108e-04 0.000000e+00  -1.393984e-02 3.817714e-04 0.000000e+00  -1.417881e-02 3.556049e-04 0.000000e+00  -1.440059e-02 3.286715e-04 0.000000e+00  -1.460471e-02 3.010312e-04 0.000000e+00  -1.479070e-02 2.727511e-04 0.000000e+00  -1.495816e-02 2.438988e-04 0.000000e+00  -1.510676e-02 2.145344e-04 0.000000e+00  -1.523619e-02 1.847181e-04 0.000000e+00  -1.534616e-02 1.545176e-04 0.000000e+00  -1.543644e-02 1.240008e-04 0.000000e+00  -1.550686e-02 9.322788e-05 0.000000e+00  -1.555727e-02 6.225888e-05 0.000000e+00  -1.558756e-02 3.116177e-05 0.000000e+00  -1.559766e-02 4.596821e-09 0.000000e+00  -1.558756e-02 -3.115258e-05 0.000000e+00  -1.555729e-02 -6.224971e-05 0.000000e+00  -1.550688e-02 -9.321873e-05 0.000000e+00  -1.543648e-02 -1.239917e-04 0.000000e+00  -1.534620e-02 -1.545085e-04 0.000000e+00  -1.523624e-02 -1.847091e-04 0.000000e+00  -1.510681e-02 -2.145255e-04 0.000000e+00  -1.495823e-02 -2.438900e-04 0.000000e+00  -1.479078e-02 -2.727425e-04 0.000000e+00  -1.460479e-02 -3.010227e-04 0.000000e+00  -1.440068e-02 -3.286632e-04 0.000000e+00  -1.417891e-02 -3.555968e-04 0.000000e+00  -1.393994e-02 -3.817635e-04 0.000000e+00  -1.368426e-02 -4.071032e-04 0.000000e+00  -1.341244e-02 -4.315493e-04 0.000000e+00  -1.312514e-02 -4.550357e-04 0.000000e+00  -1.282295e-02 -4.775031e-04 0.000000e+00  -1.250653e-02 -4.988917e-04 0.000000e+00  -1.217662e-02 -5.191367e-04 0.000000e+00  -1.183404e-02 -5.381743e-04 0.000000e+00  -1.147954e-02 -5.559463e-04 0.000000e+00  -1.111393e-02 -5.723944e-04 0.000000e+00  -1.073811e-02 -5.874568e-04 0.000000e+00  -1.035306e-02 -6.010732e-04 0.000000e+00  -9.959684e-03 -6.131879e-04 0.000000e+00  -9.558919e-03 -6.237456e-04 0.000000e+00  -9.151840e-03 -6.326894e-04 0.000000e+00  -8.739561e-03 -6.399645e-04 0.000000e+00  -8.323123e-03 -6.455197e-04 0.000000e+00  -7.903598e-03 -6.493050e-04 0.000000e+00  -7.482196e-03 -6.512709e-04 0.000000e+00  -7.060156e-03 -6.513712e-04 0.000000e+00  -6.638639e-03 -6.495624e-04 0.000000e+00  -6.218831e-03 -6.458030e-04