<?xml version="1.0"?>
<VTKFile type="UnstructuredGrid"  version="0.1"  >
<UnstructuredGrid>
<Piece  NumberOfPoints="16641" NumberOfCells="32768">
<Points>
<DataArray  type="Float32"  NumberOfComponents="3"  format="ascii">0 0 0  0.0078125 0 0  0.015625 0 0  0.0234375 0 0  0.03125 0 0  0.0390625 0 0  0.046875 0 0  0.0546875 0 0  0.0625 0 0  0.0703125 0 0  0.078125 0 0  0.0859375 0 0  0.09375 0 0  0.101562 0 0  0.109375 0 0  0.117188 0 0  0.125 0 0  0.132812 0 0  0.140625 0 0  0.148438 0 0  0.15625 0 0  0.164062 0 0  0.171875 0 0  0.179688 0 0  0.1875 0 0  0.195312 0 0  0.203125 0 0  0.210938 0 0  0.21875 0 0  0.226562 0 0  0.234375 0 0  0.242188 0 0  0.25 0 0  0.257812 0 0  0.265625 0 0  0.273438 0 0  0.28125 0 0  0.289062 0 0  0.296875 0 0  0.304688 0 0  0.3125 0 0  0.320312 0 0  0.328125 0 0  0.335938 0 0  0.34375 0 0  0.351562 0 0  0.359375 0 0  0.367188 0 0  0.375 0 0  0.382812 0 0  0.390625 0 0  0.398438 0 0  0.40625 0 0  0.414062 0 0  0.421875 0 0  0.429688 0 0  0.4375 0 0  0.445312 0 0  0.453125 0 0  0.460938 0 0  0.46875 0 0  0.476562 0 0  0.484375 0 0  0.492188 0 0  0.5 0 0  0.507812 0 0  0.515625 0 0  0.523438 0 0  0.53125 0 0  0.539062 0 0  0.546875 0 0  0.554688 0 0  0.5625 0 0  0.570312 0 0  0.578125 0 0  0.585938 0 0  0.59375 0 0  0.601562 0 0  0.609375 0 0  0.617188 0 0  0.625 0 0  0.632812 0 0  0.640625 0 0  0.648438 0 0  0.65625 0 0  0.664062 0 0  0.671875 0 0  0.679688 0 0  0.6875 0 0  0.695312 0 0  0.703125 0 0  0.710938 0 0  0.71875 0 0  0.726562 0 0  0.734375 0 0  0.742188 0 0  0.75 0 0  0.757812 0 0  0.765625 0 0  0.773438 0 0  0.78125 0 0  0.789062 0 0  0.796875 0 0  0.804688 0 0  0.8125 0 0  0.820312 0 0  0.828125 0 0  0.835938 0 0  0.84375 0 0  0.851562 0 0  0.859375 0 0  0.867188 0 0  0.875 0 0  0.882812 0 0  0.890625 0 0  0.898438 0 0  0.90625 0 0  0.914062 0 0  0.921875 0 0  0.929688 0 0  0.9375 0 0  0.945312 0 0  0.953125 0 0  0.960938 0 0  0.96875 0 0  0.976562 0 0  0.984375 0 0  0.992188 0 0  1 0 0  0 0.0078125 0  0.0078125 0.0078125 0  0.015625 0.0078125 0  0.0234375 0.0078125 0  0.03125 0.0078125 0  0.0390625 0.0078125 0  0.046875 0.0078125 0  0.0546875 0.0078125 0  0.0625 0.0078125 0  0.0703125 0.0078125 0  0.078125 0.0078125 0  0.0859375 0.0078125 0  0.09375 0.0078125 0  0.101562 0.0078125 0  0.109375 0.0078125 0  0.117188 0.0078125 0  0.125 0.0078125 0  0.132812 0.0078125 0  0.140625 0.0078125 0  0.148438 0.0078125 0  0.15625 0.0078125 0  0.164062 0.0078125 0  0.171875 0.0078125 0  0.179688 0.0078125 0  0.1875 0.0078125 0  0.195312 0.0078125 0  0.203125 0.0078125 0  0.210938 0.0078125 0  0.21875 0.0078125 0  0.226562 0.0078125 0  0.234375 0.0078125 0  0.242188 0.0078125 0  0.25 0.0078125 0  0.257812 0.0078125 0  0.265625 0.0078125 0  0.273438 0.0078125 0  0.28125 0.0078125 0  0.289062 0.0078125 0  0.296875 0.0078125 0  0.304688 0.0078125 0  0.3125 0.0078125 0  0.320312 0.0078125 0  0.328125 0.0078125 0  0.335938 0.0078125 0  0.34375 0.0078125 0  0.351562 0.0078125 0  0.359375 0.0078125 0  0.367188 0.0078125 0  0.375 0.0078125 0  0.382812 0.0078125 0  0.390625 0.0078125 0  0.398438 0.0078125 0  0.40625 0.0078125 0  0.414062 0.0078125 0  0.421875 0.0078125 0  0.429688 0.0078125 0  0.4375 0.0078125 0  0.445312 0.0078125 0  0.453125 0.0078125 0  0.460938 0.0078125 0  0.46875 0.0078125 0  0.476562 0.0078125 0  0.484375 0.0078125 0  0.492188 0.0078125 0  0.5 0.0078125 0  0.507812 0.0078125 0  0.515625 0.0078125 0  0.523438 0.0078125 0  0.53125 0.0078125 0  0.539062 0.0078125 0  0.546875 0.0078125 0  0.554688 0.0078125 0  0.5625 0.0078125 0  0.570312 0.0078125 0  0.578125 0.0078125 0  0.585938 0.0078125 0  0.59375 0.0078125 0  0.601562 0.0078125 0  0.609375 0.0078125 0  0.617188 0.0078125 0  0.625 0.0078125 0  0.632812 0.0078125 0  0.640625 0.0078125 0  0.648438 0.0078125 0  0.65625 0.0078125 0  0.664062 0.0078125 0  0.671875 0.0078125 0  0.679688 0.0078125 0  0.6875 0.0078125 0  0.695312 0.0078125 0  0.703125 0.0078125 0  0.710938 0.0078125 0  0.71875 0.0078125 0  0.726562 0.0078125 0  0.734375 0.0078125 0  0.742188 0.0078125 0  0.75 0.0078125 0  0.757812 0.0078125 0  0.765625 0.0078125 0  0.773438 0.0078125 0  0.78125 0.0078125 0  0.789062 0.0078125 0  0.796875 0.0078125 0  0.804688 0.0078125 0  0.8125 0.0078125 0  0.820312 0.0078125 0  0.828125 0.0078125 0  0.835938 0.0078125 0  0.84375 0.0078125 0  0.851562 0.0078125 0  0.859375 0.0078125 0  0.867188 0.0078125 0  0.875 0.0078125 0  0.882812 0.0078125 0  0.890625 0.0078125 0  0.898438 0.0078125 0  0.90625 0.0078125 0  0.914062 0.0078125 0  0.921875 0.0078125 0  0.929688 0.0078125 0  0.9375 0.0078125 0  0.945312 0.0078125 0  0.953125 0.0078125 0  0.960938 0.0078125 0  0.96875 0.0078125 0  0.976562 0.0078125 0  0.984375 0.0078125 0  0.992188 0.0078125 0  1 0.0078125 0  0 0.015625 0  0.0078125 0.015625 0  0.015625 0.015625 0  0.0234375 0.015625 0  0.03125 0.015625 0  0.0390625 0.015625 0  0.046875 0.015625 0  0.0546875 0.015625 0  0.0625 0.015625 0  0.0703125 0.015625 0  0.078125 0.015625 0  0.0859375 0.015625 0  0.09375 0.015625 0  0.101562 0.015625 0  0.109375 0.015625 0  0.117188 0.015625 0  0.125 0.015625 0  0.132812 0.015625 0  0.140625 0.015625 0  0.148438 0.015625 0  0.15625 0.015625 0  0.164062 0.015625 0  0.171875 0.015625 0  0.179688 0.015625 0  0.1875 0.015625 0  0.195312 0.015625 0  0.203125 0.015625 0  0.210938 0.015625 0  0.21875 0.015625 0  0.226562 0.015625 0  0.234375 0.015625 0  0.242188 0.015625 0  0.25 0.015625 0  0.257812 0.015625 0  0.265625 0.015625 0  0.273438 0.015625 0  0.28125 0.015625 0  0.289062 0.015625 0  0.296875 0.015625 0  0.304688 0.015625 0  0.3125 0.015625 0  0.320312 0.015625 0  0.328125 0.015625 0  0.335938 0.015625 0  0.34375 0.015625 0  0.351562 0.015625 0  0.359375 0.015625 0  0.367188 0.015625 0  0.375 0.015625 0  0.382812 0.015625 0  0.390625 0.015625 0  0.398438 0.015625 0  0.40625 0.015625 0  0.414062 0.015625 0  0.421875 0.015625 0  0.429688 0.015625 0  0.4375 0.015625 0  0.445312 0.015625 0  0.453125 0.015625 0  0.460938 0.015625 0  0.46875 0.015625 0  0.476562 0.015625 0  0.484375 0.015625 0  0.492188 0.015625 0  0.5 0.015625 0  0.507812 0.015625 0  0.515625 0.015625 0  0.523438 0.015625 0  0.53125 0.015625 0  0.539062 0.015625 0  0.546875 0.015625 0  0.554688 0.015625 0  0.5625 0.015625 0  0.570312 0.015625 0  0.578125 0.015625 0  0.585938 0.015625 0  0.59375 0.015625 0  0.601562 0.015625 0  0.609375 0.015625 0  0.617188 0.015625 0  0.625 0.015625 0  0.632812 0.015625 0  0.640625 0.015625 0  0.648438 0.015625 0  0.65625 0.015625 0  0.664062 0.015625 0  0.671875 0.015625 0  0.679688 0.015625 0  0.6875 0.015625 0  0.695312 0.015625 0  0.703125 0.015625 0  0.710938 0.015625 0  0.71875 0.015625 0  0.726562 0.015625 0  0.734375 0.015625 0  0.742188 0.015625 0  0.75 0.015625 0  0.757812 0.015625 0  0.765625 0.015625 0  0.773438 0.015625 0  0.78125 0.015625 0  0.789062 0.015625 0  0.796875 0.015625 0  0.804688 0.015625 0  0.8125 0.015625 0  0.820312 0.015625 0  0.828125 0.015625 0  0.835938 0.015625 0  0.84375 0.015625 0  0.851562 0.015625 0  0.859375 0.015625 0  0.867188 0.015625 0  0.875 0.015625 0  0.882812 0.015625 0  0.890625 0.015625 0  0.898438 0.015625 0  0.90625 0.015625 0  0.914062 0.015625 0  0.921875 0.015625 0  0.929688 0.015625 0  0.9375 0.015625 0  0.945312 0.015625 0  0.953125 0.015625 0  0.960938 0.015625 0  0.96875 0.015625 0  0.976562 0.015625 0  0.984375 0.015625 0  0.992188 0.015625 0  1 0.015625 0  0 0.0234375 0  0.0078125 0.0234375 0  0.015625 0.0234375 0  0.0234375 0.0234375 0  0.03125 0.0234375 0  0.0390625 0.0234375 0  0.046875 0.0234375 0  0.0546875 0.0234375 0  0.0625 0.0234375 0  0.0703125 0.0234375 0  0.078125 0.0234375 0  0.0859375 0.0234375 0  0.09375 0.0234375 0  0.101562 0.0234375 0  0.109375 0.0234375 0  0.117188 0.0234375 0  0.125 0.0234375 0  0.132812 0.0234375 0  0.140625 0.0234375 0  0.148438 0.0234375 0  0.15625 0.0234375 0  0.164062 0.0234375 0  0.171875 0.0234375 0  0.179688 0.0234375 0  0.1875 0.0234375 0  0.195312 0.0234375 0  0.203125 0.0234375 0  0.210938 0.0234375 0  0.21875 0.0234375 0  0.226562 0.0234375 0  0.234375 0.0234375 0  0.242188 0.0234375 0  0.25 0.0234375 0  0.257812 0.0234375 0  0.265625 0.0234375 0  0.273438 0.0234375 0  0.28125 0.0234375 0  0.289062 0.0234375 0  0.296875 0.0234375 0  0.304688 0.0234375 0  0.3125 0.0234375 0  0.320312 0.0234375 0  0.328125 0.0234375 0  0.335938 0.0234375 0  0.34375 0.0234375 0  0.351562 0.0234375 0  0.359375 0.0234375 0  0.367188 0.0234375 0  0.375 0.0234375 0  0.382812 0.0234375 0  0.390625 0.0234375 0  0.398438 0.0234375 0  0.40625 0.0234375 0  0.414062 0.0234375 0  0.421875 0.0234375 0  0.429688 0.0234375 0  0.4375 0.0234375 0  0.445312 0.0234375 0  0.453125 0.0234375 0  0.460938 0.0234375 0  0.46875 0.0234375 0  0.476562 0.0234375 0  0.484375 0.0234375 0  0.492188 0.0234375 0  0.5 0.0234375 0  0.507812 0.0234375 0  0.515625 0.0234375 0  0.523438 0.0234375 0  0.53125 0.0234375 0  0.539062 0.0234375 0  0.546875 0.0234375 0  0.554688 0.0234375 0  0.5625 0.0234375 0  0.570312 0.0234375 0  0.578125 0.0234375 0  0.585938 0.0234375 0  0.59375 0.0234375 0  0.601562 0.0234375 0  0.609375 0.0234375 0  0.617188 0.0234375 0  0.625 0.0234375 0  0.632812 0.0234375 0  0.640625 0.0234375 0  0.648438 0.0234375 0  0.65625 0.0234375 0  0.664062 0.0234375 0  0.671875 0.0234375 0  0.679688 0.0234375 0  0.6875 0.0234375 0  0.695312 0.0234375 0  0.703125 0.0234375 0  0.710938 0.0234375 0  0.71875 0.0234375 0  0.726562 0.0234375 0  0.734375 0.0234375 0  0.742188 0.0234375 0  0.75 0.0234375 0  0.757812 0.0234375 0  0.765625 0.0234375 0  0.773438 0.0234375 0  0.78125 0.0234375 0  0.789062 0.0234375 0  0.796875 0.0234375 0  0.804688 0.0234375 0  0.8125 0.0234375 0  0.820312 0.0234375 0  0.828125 0.0234375 0  0.835938 0.0234375 0  0.84375 0.0234375 0  0.851562 0.0234375 0  0.859375 0.0234375 0  0.867188 0.0234375 0  0.875 0.0234375 0  0.882812 0.0234375 0  0.890625 0.0234375 0  0.898438 0.0234375 0  0.90625 0.0234375 0  0.914062 0.0234375 0  0.921875 0.0234375 0  0.929688 0.0234375 0  0.9375 0.0234375 0  0.945312 0.0234
[...]
<PointData  Vectors="u"> 
<DataArray  type="Float32"  Name="u"  NumberOfComponents="3" format="ascii">0.000000e+00 0.000000e+00 0.000000e+00  0.000000e+00 0.000000e+00 0.000000e+00  0.000000e+00 0.000000e+00 0.000000e+00  0.000000e+00 0.000000e+00 0.000000e+00  0.000000e+00 0.000000e+00 0.000000e+00  0.000000e+00 0.000000e+00 0.000000e+00  0.000000e+00 0.000000e+00 0.000000e+00  0.000000e+00 0.000000e+00 0.000000e+00  0.000000e+00 0.000000e+00 0.000000e+00  0.000000e+00 0.000000e+00 0.000000e+00  0.000000e+00 0.000000e+00 0.000000e+00  0.000000e+00 0.000000e+00 0.000000e+00  0.000000e+00 0.000000e+00 0.000000e+00  0.000000e+00 0.000000e+00 0.000000e+00  0.000000e+00 0.000000e+00 0.000000e+00  0.000000e+00 0.000000e+00 0.000000e+00  0.000000e+00 0.000000e+00 0.000000e+00  0.000000e+00 0.000000e+00 0.000000e+00  0.000000e+00 0.000000e+00 0.000000e+00  0.000000e+00 0.000000e+00 0.000000e+00  0.000000e+00 0.000000e+00 0.000000e+00  0.000000e+00 0.000000e+00 0.000000e+00  0.000000e+00 0.000000e+00 0.000000e+00  0.000000e+00 0.000000e+00 0.000000e+00  0.000000e+00 0.000000e+00 0.000000e+00  0.000000e+00 0.000000e+00 0.000000e+00  0.000000e+00 0.000000e+00 0.000000e+00  0.000000e+00 0.000000e+00 0.000000e+00  0.000000e+00 0.000000e+00 0.000000e+00  0.000000e+00 0.000000e+00 0.000000e+00  0.000000e+00 0.000000e+00 0.000000e+00  0.000000e+00 0.000000e+00 0.000000e+00  0.000000e+00 0.000000e+00 0.000000e+00  0.000000e+00 0.000000e+00 0.000000e+00  0.000000e+00 0.000000e+00 0.000000e+00  0.000000e+00 0.000000e+00 0.000000e+00  0.000000e+00 0.000000e+00 0.000000e+00  0.000000e+00 0.000000e+00 0.000000e+00  0.000000e+00 0.000000e+00 0.000000e+00  0.000000e+00 0.000000e+00 0.000000e+00  0.000000e+00 0.000000e+00 0.000000e+00  0.000000e+00 0.000000e+00 0.000000e+00  0.000000e+00 0.000000e+00 0.000000e+00  0.000000e+00 0.000000e+00 0.000000e+00  0.000000e+00 0.000000e+00 0.000000e+00  0.000000e+00 0.000000e+00 0.000000e+00  0.000000e+00 0.000000e+00 0.000000e+00  0.000000e+00 0.000000e+00 0.000000e+00  0.000000e+00 0.000000e+00 0.000000e+00  0.000000e+00 0.000000e+00 0.000000e+00  0.000000e+00 0.000000e+00 0.000000e+00  0.000000e+00 0.000000e+00 0.000000e+00  0.000000e+00 0.000000e+00 0.000000e+00  0.000000e+00 0.000000e+00 0.000000e+00  0.000000e+00 0.000000e+00 0.000000e+00  0.000000e+00 0.000000e+00 0.000000e+00  0.000000e+00 0.000000e+00 0.000000e+00  0.000000e+00 0.000000e+00 0.000000e+00  0.000000e+00 0.000000e+00 0.000000e+00  0.000000e+00 0.000000e+00 0.000000e+00  0.000000e+00 0.000000e+00 0.000000e+00  0.000000e+00 0.000000e+00 0.000000e+00  0.000000e+00 0.000000e+00 0.000000e+00  0.000000e+00 0.000000e+00 0.000000e+00  0.000000e+00 0.000000e+00 0.000000e+00  0.000000e+00 0.000000e+00 0.000000e+00  0.000000e+00 0.000000e+00 0.000000e+00  0.000000e+00 0.000000e+00 0.000000e+00  0.000000e+00 0.000000e+00 0.000000e+00  0.000000e+00 0.000000e+00 0.000000e+00  0.000000e+00 0.000000e+00 0.000000e+00  0.000000e+00 0.000000e+00 0.000000e+00  0.000000e+00 0.000000e+00 0.000000e+00  0.000000e+00 0.000000e+00 0.000000e+00  0.000000e+00 0.000000e+00 0.000000e+00  0.000000e+00 0.000000e+00 0.000000e+00  0.000000e+00 0.000000e+00 0.000000e+00  0.000000e+00 0.000000e+00 0.000000e+00  0.000000e+00 0.000000e+00 0.000000e+00  0.000000e+00 0.000000e+00 0.000000e+00  0.000000e+00 0.000000e+00 0.000000e+00  0.000000e+00 0.000000e+00 0.000000e+00  0.000000e+00 0.000000e+00 0.000000e+00  0.000000e+00 0.000000e+00 0.000000e+00  0.000000e+00 0.000000e+00 0.000000e+00  0.000000e+00 0.000000e+00 0.000000e+00  0.000000e+00 0.000000e+00 0.000000e+00  0.000000e+00 0.000000e+00 0.000000e+00  0.000000e+00 0.000000e+00 0.000000e+00  0.000000e+00 0.000000e+00 0.000000e+00  0.000000e+00 0.000000e+00 0.000000e+00  0.000000e+00 0.000000e+00 0.000000e+00  0.000000e+00 0.000000e+00 0.000000e+00  0.000000e+00 0.000000e+00 0.000000e+00  0.000000e+00 0.000000e+00 0.000000e+00  0.000000e+00 0.000000e+00 0.000000e+00  0.000000e+00 0.000000e+00 0.000000e+00  0.000000e+00 0.000000e+00 0.000000e+00  0.000000e+00 0.000000e+00 0.000000e+00  0.000000e+00 0.000000e+00 0.000000e+00  0.000000e+00 0.000000e+00 0.000000e+00  0.000000e+00 0.000000e+00 0.000000e+00  0.000000e+00 0.000000e+00 0.000000e+00  0.000000e+00 0.000000e+00 0.000000e+00  0.000000e+00 0.000000e+00 0.000000e+00  0.000000e+00 0.000000e+00 0.000000e+00  0.000000e+00 0.000000e+00 0.000000e+00  0.000000e+00 0.000000e+00 0.000000e+00  0.000000e+00 0.000000e+00 0.000000e+00  0.000000e+00 0.000000e+00 0.000000e+00  0.000000e+00 0.000000e+00 0.000000e+00  0.000000e+00 0.000000e+00 0.000000e+00  0.000000e+00 0.000000e+00 0.000000e+00  0.000000e+00 0.000000e+00 0.000000e+00  0.000000e+00 0.000000e+00 0.000000e+00  0.000000e+00 0.000000e+00 0.000000e+00  0.000000e+00 0.000000e+00 0.000000e+00  0.000000e+00 0.000000e+00 0.000000e+00  0.000000e+00 0.000000e+00 0.000000e+00  0.000000e+00 0.000000e+00 0.000000e+00  0.000000e+00 0.000000e+00 0.000000e+00  0.000000e+00 0.000000e+00 0.000000e+00  0.000000e+00 0.000000e+00 0.000000e+00  0.000000e+00 0.000000e+00 0.000000e+00  0.000000e+00 0.000000e+00 0.000000e+00  0.000000e+00 0.000000e+00 0.000000e+00  0.000000e+00 0.000000e+00 0.000000e+00  0.000000e+00 0.000000e+00 0.000000e+00  0.000000e+00 0.000000e+00 0.000000e+00  0.000000e+00 0.000000e+00 0.000000e+00  5.197644e-06 -5.197652e-06 0.000000e+00  1.858793e-05 -9.093885e-06 0.000000e+00  3.597054e-05 -1.004111e-05 0.000000e+00  5.277544e-05 -8.851830e-06 0.000000e+00  6.579458e-05 -6.215817e-06 0.000000e+00  7.277970e-05 -2.632058e-06 0.000000e+00  7.224606e-05 1.554357e-06 0.000000e+00  6.324659e-05 6.106176e-06 0.000000e+00  4.521635e-05 1.085656e-05 0.000000e+00  1.786637e-05 1.568612e-05 0.000000e+00  -1.889086e-05 2.050798e-05 0.000000e+00  -6.499359e-05 2.525802e-05 0.000000e+00  -1.202646e-04 2.988806e-05 0.000000e+00  -1.844576e-04 3.436296e-05 0.000000e+00  -2.572441e-04 3.865486e-05 0.000000e+00  -3.382423e-04 4.274261e-05 0.000000e+00  -4.270532e-04 4.661119e-05 0.000000e+00  -5.232534e-04 5.024945e-05 0.000000e+00  -6.263746e-04 5.364833e-05 0.000000e+00  -7.359296e-04 5.680137e-05 0.000000e+00  -8.514474e-04 5.970495e-05 0.000000e+00  -9.724530e-04 6.235696e-05 0.000000e+00  -1.098437e-03 6.475593e-05 0.000000e+00  -1.228884e-03 6.690163e-05 0.000000e+00  -1.363316e-03 6.879535e-05 0.000000e+00  -1.501255e-03 7.043910e-05 0.000000e+00  -1.642194e-03 7.183510e-05 0.000000e+00  -1.785629e-03 7.298631e-05 0.000000e+00  -1.931100e-03 7.389652e-05 0.000000e+00  -2.078153e-03 7.456988e-05 0.000000e+00  -2.226307e-03 7.501073e-05 0.000000e+00  -2.375087e-03 7.522389e-05 0.000000e+00  -2.524069e-03 7.521455e-05 0.000000e+00  -2.672837e-03 7.498811e-05 0.000000e+00  -2.820947e-03 7.455022e-05 0.000000e+00  -2.967970e-03 7.390688e-05 0.000000e+00  -3.113522e-03 7.306411e-05 0.000000e+00  -3.257234e-03 7.202806e-05 0.000000e+00  -3.398710e-03 7.080523e-05 0.000000e+00  -3.537571e-03 6.940239e-05 0.000000e+00  -3.673484e-03 6.782605e-05 0.000000e+00  -3.806128e-03 6.608278e-05 0.000000e+00  -3.935164e-03 6.417965e-05 0.000000e+00  -4.060264e-03 6.212389e-05 0.000000e+00  -4.181149e-03 5.992231e-05 0.000000e+00  -4.297553e-03 5.758169e-05 0.000000e+00  -4.409192e-03 5.510944e-05 0.000000e+00  -4.515797e-03 5.251310e-05 0.000000e+00  -4.617146e-03 4.979959e-05 0.000000e+00  -4.713023e-03 4.697577e-05 0.000000e+00  -4.803204e-03 4.404928e-05 0.000000e+00  -4.887484e-03 4.102781e-05 0.000000e+00  -4.965692e-03 3.791830e-05 0.000000e+00  -5.037669e-03 3.472764e-05 0.000000e+00  -5.103253e-03 3.146358e-05 0.000000e+00  -5.162297e-03 2.813387e-05 0.000000e+00  -5.214686e-03 2.474545e-05 0.000000e+00  -5.260317e-03 2.130520e-05 0.000000e+00  -5.299088e-03 1.782091e-05 0.000000e+00  -5.330914e-03 1.430036e-05 0.000000e+00  -5.355737e-03 1.075047e-05 0.000000e+00  -5.373507e-03 7.178097e-06 0.000000e+00  -5.384183e-03 3.591047e-06 0.000000e+00  -5.387744e-03 -2.876373e-09 0.000000e+00  -5.384184e-03 -3.596791e-06 0.000000e+00  -5.373510e-03 -7.183823e-06 0.000000e+00  -5.355741e-03 -1.075617e-05 0.000000e+00  -5.330920e-03 -1.430604e-05 0.000000e+00  -5.299095e-03 -1.782653e-05 0.000000e+00  -5.260325e-03 -2.131077e-05 0.000000e+00  -5.214696e-03 -2.475095e-05 0.000000e+00  -5.162308e-03 -2.813931e-05 0.000000e+00  -5.103265e-03 -3.146892e-05 0.000000e+00  -5.037683e-03 -3.473289e-05 0.000000e+00  -4.965707e-03 -3.792344e-05 0.000000e+00  -4.887501e-03 -4.103284e-05 0.000000e+00  -4.803222e-03 -4.405418e-05 0.000000e+00  -4.713041e-03 -4.698053e-05 0.000000e+00  -4.617165e-03 -4.980420e-05 0.000000e+00  -4.515819e-03 -5.251757e-05 0.000000e+00  -4.409214e-03 -5.511373e-05 0.000000e+00  -4.297576e-03 -5.758580e-05 0.000000e+00  -4.181173e-03 -5.992625e-05 0.000000e+00  -4.060288e-03 -6.212763e-05 0.000000e+00  -3.935189e-03 -6.418318e-05 0.000000e+00  -3.806155e-03 -6.608609e-05 0.000000e+00  -3.673510e-03 -6.782914e-05 0.000000e+00  -3.537598e-03 -6.940524e-05 0.000000e+00  -3.398737e-03 -7.080784e-05 0.000000e+00  -3.257261e-03 -7.203040e-05 0.000000e+00  -3.113548e-03 -7.306617e-05 0.000000e+00  -2.967996e-03 -7.390863e-05 0.000000e+00  -2.820973e-03 -7.455165e-05 0.000000e+00  -2.672862e-03 -7.498919e-05 0.000000e+00  -2.524094e-03 -7.521526e-05 0.000000e+00  -2.375111e-03 -7.522420e-05 0.000000e+00  -2.226329e-03 -7.501060e-05 0.000000e+00  -2.078174e-03 -7.456927e-05 0.000000e+00  -1.931119e-03 -7.389539e-05 0.000000e+00  -1.785647e-03 -7.298461e-05 0.000000e+00  -1.642210e-03 -7.183279e-05 0.000000e+00  -1.501269e-03 -7.043612e-05 0.000000e+00  -1.363328e-03 -6.879165e-05 0.000000e+00  -1.228895e-03 -6.689713e-05 0.000000e+00  -1.098445e-03 -6.475059e-05 0.000000e+00  -9.724599e-04 -6.235070e-05 0.000000e+00  -8.514527e-04 -5.969769e-05 0.000000e+00  -7.359333e-04 -5.679304e-05 0.000000e+00  -6.263769e-04 -5.363885e-05 0.000000e+00  -5.232543e-04 -5.023874e-05 0.000000e+00  -4.270529e-04 -4.659915e-05 0.000000e+00  -3.382409e-04 -4.272915e-05 0.000000e+00  -2.572416e-04 -3.863989e-05 0.000000e+00  -1.844542e-04 -3.434639e-05 0.000000e+00  -1.202604e-04 -2.986980e-05 0.000000e+00  -6.498857e-05 -2.523800e-05 0.000000e+00  -1.888763e-05 -2.048649e-05 0.000000e+00  1.787321e-05 -1.566260e-05 0.000000e+00  4.522580e-05 -1.083120e-05 0.000000e+00  6.325597e-05 -6.080096e-06 0.000000e+00  7.225684e-05 -1.528560e-06 0.000000e+00  7.279257e-05 2.656097e-06 0.000000e+00  6.580881e-05 6.233826e-06 0.000000e+00  5.279122e-05 8.856575e-06 0.000000e+00  3.597054e-05 1.001549e-05 0.000000e+00  1.863995e-05 9.011039e-06 0.000000e+00  5.096236e-06 5.096628e-06 0.000000e+00  0.000000e+00 0.000000e+00 0.000000e+00  0.000000e+00 0.000000e+00 0.000000e+00  9.099388e-06 -1.859128e-05 0.000000e+00  2.942994e-05 -2.941476e-05 0.000000e+00  5.338260e-05 -3.149471e-05 0.000000e+00  7.477583e-05 -2.661493e-05 0.000000e+00  8.878210e-05 -1.672565e-05 0.000000e+00  9.175878e-05 -3.390555e-06 0.000000e+00  8.112411e-05 1.223496e-05 0.000000e+00  5.512041e-05 2.930935e-05 0.000000e+00  1.262869e-05 4.721764e-05 0.000000e+00  -4.698293e-05 6.550644e-05 0.000000e+00  -1.239746e-04 8.383788e-05 0.000000e+00  -2.183213e-04 1.019577e-04 0.000000e+00  -3.297709e-04 1.196717e-04 0.000000e+00  -4.579318e-04 1.368357e-04 0.000000e+00  -6.022442e-04 1.533344e-04 0.000000e+00  -7.620371e-04 1.690788e-04 0.000000e+00  -9.365987e-04 1.840045e-04 0.000000e+00  -1.125163e-03 1.980628e-04 0.000000e+00  -1.326870e-03 2.112137e-04 0.000000e+00  -1.540816e-03 2.234280e-04 0.000000e+00  -1.766125e-03 2.346881e-04 0.000000e+00  -2.001908e-03 2.449824e-04 0.000000e+00  -2.247205e-03 2.543026e-04 0.000000e+00  -2.501043e-03 2.626454e-04 0.000000e+00  -2.762511e-03 2.700137e-04 0.000000e+00  -3.030705e-03 2.764135e-04 0.000000e+00  -3.304654e-03 2.818519e-04 0.000000e+00  -3.583396e-03 2.863389e-04 0.000000e+00  -3.866048e-03 2.898883e-04 0.000000e+00  -4.151740e-03 2.925150e-04 0.000000e+00  -4.439547e-03 2.942351e-04 0.000000e+00  -4.728556e-03 2.950666e-04 0.000000e+00  -5.017946e-03 2.950291e-04 0.000000e+00  -5.306916e-03 2.941429e-04 0.000000e+00  -5.594610e-03 2.924297e-04 0.000000e+00  -5.880193e-03 2.899124e-04 0.000000e+00  -6.162928e-03 2.866142e-04 0.000000e+00  -6.442097e-03 2.825587e-04 0.000000e+00  -6.716933e-03 2.777711e-04 0.000000e+00  -6.986699e-03 2.722774e-04 0.000000e+00  -7.250750e-03 2.661032e-04 0.000000e+00  -7.508463e-03 2.592738e-04 0.000000e+00  -7.759176e-03 2.518167e-04 0.000000e+00  -8.002255e-03 2.437603e-04 0.000000e+00  -8.237157e-03 2.351310e-04 0.000000e+00  -8.463361e-03 2.259552e-04 0.000000e+00  -8.680315e-03 2.162622e-04 0.000000e+00  -8.887499e-03 2.060812e-04 0.000000e+00  -9.084473e-03 1.954394e-04 0.000000e+00  -9.270823e-03 1.843637e-04 0.000000e+00  -9.446111e-03 1.728842e-04 0.000000e+00  -9.609933e-03 1.610308e-04 0.000000e+00  -9.761958e-03 1.488310e-04 0.000000e+00  -9.901877e-03 1.363118e-04 0.000000e+00  -1.002937e-02 1.235036e-04 0.000000e+00  -1.014415e-02 1.104370e-04 0.000000e+00  -1.024600e-02 9.713909e-05 0.000000e+00  -1.033472e-02 8.363715e-05 0.000000e+00  -1.041010e-02 6.996173e-05 0.000000e+00  -1.047197e-02 5.614352e-05 0.000000e+00  -1.052023e-02 4.220968e-05 0.000000e+00  -1.055478e-02 2.818731e-05 0.000000e+00  -1.057554e-02 1.410712e-05 0.000000e+00  -1.058246e-02 -1.829868e-10 0.000000e+00  -1.057554e-02 -1.410748e-05 0.000000e+00  -1.055479e-02 -2.818767e-05 0.000000e+00  -1.052024e-02 -4.221003e-05 0.000000e+00  -1.047198e-02 -5.614386e-05 0.000000e+00  -1.041011e-02 -6.996206e-05 0.000000e+00  -1.033473e-02 -8.363747e-05 0.000000e+00  -1.024602e-02 -9.713940e-05 0.000000e+00  -1.014418e-02 -1.104372e-04 0.000000e+00  -1.002939e-02 -1.235039e-04 0.000000e+00  -9.901903e-03 -1.363121e-04 0.000000e+00  -9.761987e-03 -1.488312e-04 0.000000e+00  -9.609964e-03 -1.610311e-04 0.000000e+00  -9.446144e-03 -1.728844e-04 0.000000e+00  -9.270858e-03 -1.843640e-04 0.000000e+00  -9.084511e-03 -1.954396e-04 0.000000e+00  -8.887538e-03 -2.060814e-04 0.000000e+00  -8.680357e-03 -2.162624e-04 0.000000e+00  -8.463404e-03 -2.259556e-04 0.000000e+00  -8.237202e-03 -2.351313e-04 0.000000e+00  -8.002301e-03 -2.437607e-04 0.000000e+00  -7.759223e-03 -2.518172e-04 0.000000e+00  -7.508512e-03 -2.592744e-04 0.000000e+00  -7.250799e-03 -2.661039e-04 0.000000e+00  -6.986749e-03 -2.722783e-04 0.000000e+00  -6.716983e-03 -2.777720e-04 0.000000e+00  -6.442146e-03 -2.825598e-04 0.000000e+00  -6.162977e-03 -2.866155e-04 0.000000e+00  -5.880242e-03 -2.899138e-04 0.000000e+00  -5.594657e-03 -2.924313e-04 0.000000e+00  -5.306962e-03 -2.941446e-04 0.000000e+00  -5.017991e-03 -2.950308e-04 0.000000e+00  -4.728598e-03 -2.950684e-04 0.000000e+00  -4.439587e-03 -2.942370e-04 0.000000e+00  -4.151777e-03 -2.925169e-04 0.000000e+00  -3.866081e-03 -2.898901e-04 0.000000e+00  -3.583427e-03 -2.863406e-04 0.000000e+00  -3.304681e-03 -2.818534e-04 0.000000e+00  -3.030729e-03 -2.764148e-04 0.000000e+00  -2.762532e-03 -2.700146e-04 0.000000e+00  -2.501060e-03 -2.626459e-04 0.000000e+00  -2.247219e-03 -2.543027e-04 0.000000e+00  -2.001918e-03 -2.449820e-04 0.000000e+00  -1.766132e-03 -2.346870e-04 0.000000e+00  -1.540820e-03 -2.234263e-04 0.000000e+00  -1.326871e-03 -2.112112e-04 0.000000e+00  -1.125162e-03 -1.980596e-04 0.000000e+00  -9.365952e-04 -1.840005e-04 0.000000e+00  -7.620316e-04 -1.690740e-04 0.000000e+00  -6.022371e-04 -1.533289e-04 0.000000e+00  -4.579234e-04 -1.368296e-04 0.000000e+00  -3.297613e-04 -1.196649e-04 0.000000e+00  -2.183108e-04 -1.019505e-04 0.000000e+00  -1.239690e-04 -8.383169e-05 0.000000e+00  -4.697139e-05 -6.549927e-05 0.000000e+00  1.264373e-05 -4.721002e-05 0.000000e+00  5.513207e-05 -2.930434e-05 0.000000e+00  8.113403e-05 -1.223344e-05 0.000000e+00  9.176847e-05 3.389546e-06 0.000000e+00  8.878783e-05 1.672080e-05 0.000000e+00  7.477998e-05 2.660519e-05 0.000000e+00  5.337696e-05 3.149075e-05 0.000000e+00  2.944266e-05 2.942806e-05 0.000000e+00  9.015291e-06 1.864262e-05 0.000000e+00  0.000000e+00 0.000000e+00 0.000000e+00  0.000000e+00 0.000000e+00 0.000000e+00  1.007254e-05 -3.600576e-05 0.000000e+00  3.160269e-05 -5.340043e-05 0.000000e+00  5.469323e-05 -5.453588e-05 0.000000e+00  7.212462e-05 -4.274997e-05 0.000000e+00  7.824160e-05 -2.131298e-05 0.000000e+00  6.866395e-05 7.036507e-06 0.000000e+00  4.013323e-05 4.015204e-05 0.000000e+00  -9.673196e-06 7.639242e-05 0.000000e+00  -8.230763e-05 1.145123e-04 0.000000e+00  -1.787042e-04 1.535653e-04 0.000000e+00  -2.993042e-04 1.928288e-04 0.000000e+00  -4.441575e-04 2.317477e-04 0.000000e+00  -6.129918e-04 2.698908e-04 0.000000e+00  -8.053341e-04 3.069329e-04 0.000000e+00  -1.020461e-03 3.426099e-04 0.000000e+00  -1.257481e-03 3.767162e-04 0.000000e+00  -1.515439e-03 4.091000e-04 0.000000e+00  -1.793291e-03 4.396443e-04 0.000000e+00  -2.089848e-03 4.682528e-04 0.000000e+00  -2.403854e-03 4.948534e-04 0.000000e+00  -2.734084e-03 5.193999e-04 0.000000e+00  -3.079290e-03 5.418611e-04 0.000000e+00  -3.438114e-03 5.622126e-04 0.000000e+00  -3.809174e-03 5.804423e-04 0.000000e+00  -4.191176e-03 5.965522e-04 0.000000e+00  -4.582829e-03 6.105515e-04 0.000000e+00  -4.982745e-03 6.224524e-04 0.000000e+00  -5.389542e-03 6.322739e-04 0.000000e+00  -5.801952e-03 6.400434e-04 0.000000e+00  -6.218725e-03 6.457916e-04 0.000000e+00  -6.638526e-03 6.495516e-04 0.000000e+00  -7.060035e-03 6.513611e-04 0.000000e+00  -7.482068e-03 6.512617e-04 0.000000e+00  -7.903465e-03 6.492967e-04 0.000000e+00  -8.322985e-03 6.455124e-04 0.000000e+00  -8.739419e-03 6.399581e-04 0.000000e+00  -9.151694e-03 6.326840e-04 0.000000e+00  -9.558770e-03 6.237412e-04 0.000000e+00  -9.959533e-03 6.131844e-04 0.000000e+00  -1.035291e-02 6.010706e-04 0.000000e+00  -1.073796e-02 5.874551e-04 0.000000e+00  -1.111377e-02 5.723935e-04 0.000000e+00  -1.147939e-02 5.559461e-04 0.000000e+00  -1.183389e-02 5.381748e-04 0.000000e+00  -1.217647e-02 5.191378e-04 0.000000e+00  -1.250638e-02 4.988933e-04 0.000000e+00  -1.282281e-02 4.775051e-04 0.000000e+00  -1.312500e-02 4.550381e-04 0.000000e+00  -1.341230e-02 4.315521e-04 0.000000e+00  -1.368412e-02 4.071064e-04 0.000000e+00  -1.393981e-02 3.817669e-04 0.000000e+00  -1.417879e-02 3.556004e-04 0.000000e+00  -1.440056e-02 3.286671e-04 0.000000e+00  -1.460467e-02 3.010268e-04 0.000000e+00  -1.479067e-02 2.727468e-04 0.000000e+00  -1.495813e-02 2.438945e-04 0.000000e+00  -1.510672e-02 2.145302e-04 0.000000e+00  -1.523614e-02 1.847140e-04 0.000000e+00  -1.534612e-02 1.545136e-04 0.000000e+00  -1.543640e-02 1.239969e-04 0.000000e+00  -1.550681e-02 9.322409e-05 0.000000e+00  -1.555722e-02 6.225521e-05 0.000000e+00  -1.558750e-02 3.115824e-05 0.000000e+00  -1.559760e-02 1.206569e-09 0.000000e+00  -1.558750e-02 -3.115583e-05 0.000000e+00  -1.555722e-02 -6.225280e-05 0.000000e+00  -1.550682e-02 -9.322168e-05 0.000000e+00  -1.543641e-02 -1.239945e-04 0.000000e+00  -1.534614e-02 -1.545112e-04 0.000000e+00  -1.523617e-02 -1.847116e-04 0.000000e+00  -1.510674e-02 -2.145278e-04 0.000000e+00  -1.495816e-02 -2.438921e-04 0.000000e+00  -1.479070e-02 -2.727444e-04 0.000000e+00  -1.460471e-02 -3.010245e-04 0.000000e+00  -1.440060e-02 -3.286648e-04 0.000000e+00  -1.417883e-02 -3.555982e-04 0.000000e+00  -1.393986e-02 -3.817648e-04 0.000000e+00  -1.368418e-02 -4.071043e-04 0.000000e+00  -1.341236e-02 -4.315502e-04 0.000000e+00  -1.312506e-02 -4.550364e-04 0.000000e+00  -1.282287e-02 -4.775035e-04 0.000000e+00  -1.250644e-02 -4.988919e-04 0.000000e+00  -1.217654e-02 -5.191366e-04 0.000000e+00  -1.183396e-02 -5.381739e-04 0.000000e+00  -1.147946e-02 -5.559455e-04 0.000000e+00  -1.111385e-02 -5.723933e-04 0.000000e+00  -1.073803e-02 -5.874553e-04 0.000000e+00  -1.035298e-02 -6.010713e-04 0.000000e+00  -9.959607e-03 -6.131856e-04 0.000000e+00  -9.558843e-03 -6.237429e-04 0.000000e+00  -9.151766e-03 -6.326862e-04 0.000000e+00  -8.739490e-03 -6.399608e-04 0.000000e+00  -8.323054e-03 -6.455156e-04 0.000000e+00  -7.903532e-03 -6.493004e-04 0.000000e+00  -7.482132e-03 -6.512658e-04 0.000000e+00  -7.060096e-03 -6.513657e-04 0.000000e+00  -6.638583e-03 -6.495565e-04 0.000000e+00  -6.218779e-03 -6.457968e-0