<?xml version="1.0"?>
<VTKFile type="UnstructuredGrid"  version="0.1"  >
<UnstructuredGrid>
<Piece  NumberOfPoints="16641" NumberOfCells="32768">
<Points>
<DataArray  type="Float32"  NumberOfComponents="3"  format="ascii">0 0 0  0.0078125 0 0  0.015625 0 0  0.0234375 0 0  0.03125 0 0  0.0390625 0 0  0.046875 0 0  0.0546875 0 0  0.0625 0 0  0.0703125 0 0  0.078125 0 0  0.0859375 0 0  0.09375 0 0  0.101562 0 0  0.109375 0 0  0.117188 0 0  0.125 0 0  0.132812 0 0  0.140625 0 0  0.148438 0 0  0.15625 0 0  0.164062 0 0  0.171875 0 0  0.179688 0 0  0.1875 0 0  0.195312 0 0  0.203125 0 0  0.210938 0 0  0.21875 0 0  0.226562 0 0  0.234375 0 0  0.242188 0 0  0.25 0 0  0.257812 0 0  0.265625 0 0  0.273438 0 0  0.28125 0 0  0.289062 0 0  0.296875 0 0  0.304688 0 0  0.3125 0 0  0.320312 0 0  0.328125 0 0  0.335938 0 0  0.34375 0 0  0.351562 0 0  0.359375 0 0  0.367188 0 0  0.375 0 0  0.382812 0 0  0.390625 0 0  0.398438 0 0  0.40625 0 0  0.414062 0 0  0.421875 0 0  0.429688 0 0  0.4375 0 0  0.445312 0 0  0.453125 0 0  0.460938 0 0  0.46875 0 0  0.476562 0 0  0.484375 0 0  0.492188 0 0  0.5 0 0  0.507812 0 0  0.515625 0 0  0.523438 0 0  0.53125 0 0  0.539062 0 0  0.546875 0 0  0.554688 0 0  0.5625 0 0  0.570312 0 0  0.578125 0 0  0.585938 0 0  0.59375 0 0  0.601562 0 0  0.609375 0 0  0.617188 0 0  0.625 0 0  0.632812 0 0  0.640625 0 0  0.648438 0 0  0.65625 0 0  0.664062 0 0  0.671875 0 0  0.679688 0 0  0.6875 0 0  0.695312 0 0  0.703125 0 0  0.710938 0 0  0.71875 0 0  0.726562 0 0  0.734375 0 0  0.742188 0 0  0.75 0 0  0.757812 0 0  0.765625 0 0  0.773438 0 0  0.78125 0 0  0.789062 0 0  0.796875 0 0  0.804688 0 0  0.8125 0 0  0.820312 0 0  0.828125 0 0  0.835938 0 0  0.84375 0 0  0.851562 0 0  0.859375 0 0  0.867188 0 0  0.875 0 0  0.882812 0 0  0.890625 0 0  0.898438 0 0  0.90625 0 0  0.914062 0 0  0.921875 0 0  0.929688 0 0  0.9375 0 0  0.945312 0 0  0.953125 0 0  0.960938 0 0  0.96875 0 0  0.976562 0 0  0.984375 0 0  0.992188 0 0  1 0 0  0 0.0078125 0  0.0078125 0.0078125 0  0.015625 0.0078125 0  0.0234375 0.0078125 0  0.03125 0.0078125 0  0.0390625 0.0078125 0  0.046875 0.0078125 0  0.0546875 0.0078125 0  0.0625 0.0078125 0  0.0703125 0.0078125 0  0.078125 0.0078125 0  0.0859375 0.0078125 0  0.09375 0.0078125 0  0.101562 0.0078125 0  0.109375 0.0078125 0  0.117188 0.0078125 0  0.125 0.0078125 0  0.132812 0.0078125 0  0.140625 0.0078125 0  0.148438 0.0078125 0  0.15625 0.0078125 0  0.164062 0.0078125 0  0.171875 0.0078125 0  0.179688 0.0078125 0  0.1875 0.0078125 0  0.195312 0.0078125 0  0.203125 0.0078125 0  0.210938 0.0078125 0  0.21875 0.0078125 0  0.226562 0.0078125 0  0.234375 0.0078125 0  0.242188 0.0078125 0  0.25 0.0078125 0  0.257812 0.0078125 0  0.265625 0.0078125 0  0.273438 0.0078125 0  0.28125 0.0078125 0  0.289062 0.0078125 0  0.296875 0.0078125 0  0.304688 0.0078125 0  0.3125 0.0078125 0  0.320312 0.0078125 0  0.328125 0.0078125 0  0.335938 0.0078125 0  0.34375 0.0078125 0  0.351562 0.0078125 0  0.359375 0.0078125 0  0.367188 0.0078125 0  0.375 0.0078125 0  0.382812 0.0078125 0  0.390625 0.0078125 0  0.398438 0.0078125 0  0.40625 0.0078125 0  0.414062 0.0078125 0  0.421875 0.0078125 0  0.429688 0.0078125 0  0.4375 0.0078125 0  0.445312 0.0078125 0  0.453125 0.0078125 0  0.460938 0.0078125 0  0.46875 0.0078125 0  0.476562 0.0078125 0  0.484375 0.0078125 0  0.492188 0.0078125 0  0.5 0.0078125 0  0.507812 0.0078125 0  0.515625 0.0078125 0  0.523438 0.0078125 0  0.53125 0.0078125 0  0.539062 0.0078125 0  0.546875 0.0078125 0  0.554688 0.0078125 0  0.5625 0.0078125 0  0.570312 0.0078125 0  0.578125 0.0078125 0  0.585938 0.0078125 0  0.59375 0.0078125 0  0.601562 0.0078125 0  0.609375 0.0078125 0  0.617188 0.0078125 0  0.625 0.0078125 0  0.632812 0.0078125 0  0.640625 0.0078125 0  0.648438 0.0078125 0  0.65625 0.0078125 0  0.664062 0.0078125 0  0.671875 0.0078125 0  0.679688 0.0078125 0  0.6875 0.0078125 0  0.695312 0.0078125 0  0.703125 0.0078125 0  0.710938 0.0078125 0  0.71875 0.0078125 0  0.726562 0.0078125 0  0.734375 0.0078125 0  0.742188 0.0078125 0  0.75 0.0078125 0  0.757812 0.0078125 0  0.765625 0.0078125 0  0.773438 0.0078125 0  0.78125 0.0078125 0  0.789062 0.0078125 0  0.796875 0.0078125 0  0.804688 0.0078125 0  0.8125 0.0078125 0  0.820312 0.0078125 0  0.828125 0.0078125 0  0.835938 0.0078125 0  0.84375 0.0078125 0  0.851562 0.0078125 0  0.859375 0.0078125 0  0.867188 0.0078125 0  0.875 0.0078125 0  0.882812 0.0078125 0  0.890625 0.0078125 0  0.898438 0.0078125 0  0.90625 0.0078125 0  0.914062 0.0078125 0  0.921875 0.0078125 0  0.929688 0.0078125 0  0.9375 0.0078125 0  0.945312 0.0078125 0  0.953125 0.0078125 0  0.960938 0.0078125 0  0.96875 0.0078125 0  0.976562 0.0078125 0  0.984375 0.0078125 0  0.992188 0.0078125 0  1 0.0078125 0  0 0.015625 0  0.0078125 0.015625 0  0.015625 0.015625 0  0.0234375 0.015625 0  0.03125 0.015625 0  0.0390625 0.015625 0  0.046875 0.015625 0  0.0546875 0.015625 0  0.0625 0.015625 0  0.0703125 0.015625 0  0.078125 0.015625 0  0.0859375 0.015625 0  0.09375 0.015625 0  0.101562 0.015625 0  0.109375 0.015625 0  0.117188 0.015625 0  0.125 0.015625 0  0.132812 0.015625 0  0.140625 0.015625 0  0.148438 0.015625 0  0.15625 0.015625 0  0.164062 0.015625 0  0.171875 0.015625 0  0.179688 0.015625 0  0.1875 0.015625 0  0.195312 0.015625 0  0.203125 0.015625 0  0.210938 0.015625 0  0.21875 0.015625 0  0.226562 0.015625 0  0.234375 0.015625 0  0.242188 0.015625 0  0.25 0.015625 0  0.257812 0.015625 0  0.265625 0.015625 0  0.273438 0.015625 0  0.28125 0.015625 0  0.289062 0.015625 0  0.296875 0.015625 0  0.304688 0.015625 0  0.3125 0.015625 0  0.320312 0.015625 0  0.328125 0.015625 0  0.335938 0.015625 0  0.34375 0.015625 0  0.351562 0.015625 0  0.359375 0.015625 0  0.367188 0.015625 0  0.375 0.015625 0  0.382812 0.015625 0  0.390625 0.015625 0  0.398438 0.015625 0  0.40625 0.015625 0  0.414062 0.015625 0  0.421875 0.015625 0  0.429688 0.015625 0  0.4375 0.015625 0  0.445312 0.015625 0  0.453125 0.015625 0  0.460938 0.015625 0  0.46875 0.015625 0  0.476562 0.015625 0  0.484375 0.015625 0  0.492188 0.015625 0  0.5 0.015625 0  0.507812 0.015625 0  0.515625 0.015625 0  0.523438 0.015625 0  0.53125 0.015625 0  0.539062 0.015625 0  0.546875 0.015625 0  0.554688 0.015625 0  0.5625 0.015625 0  0.570312 0.015625 0  0.578125 0.015625 0  0.585938 0.015625 0  0.59375 0.015625 0  0.601562 0.015625 0  0.609375 0.015625 0  0.617188 0.015625 0  0.625 0.015625 0  0.632812 0.015625 0  0.640625 0.015625 0  0.648438 0.015625 0  0.65625 0.015625 0  0.664062 0.015625 0  0.671875 0.015625 0  0.679688 0.015625 0  0.6875 0.015625 0  0.695312 0.015625 0  0.703125 0.015625 0  0.710938 0.015625 0  0.71875 0.015625 0  0.726562 0.015625 0  0.734375 0.015625 0  0.742188 0.015625 0  0.75 0.015625 0  0.757812 0.015625 0  0.765625 0.015625 0  0.773438 0.015625 0  0.78125 0.015625 0  0.789062 0.015625 0  0.796875 0.015625 0  0.804688 0.015625 0  0.8125 0.015625 0  0.820312 0.015625 0  0.828125 0.015625 0  0.835938 0.015625 0  0.84375 0.015625 0  0.851562 0.015625 0  0.859375 0.015625 0  0.867188 0.015625 0  0.875 0.015625 0  0.882812 0.015625 0  0.890625 0.015625 0  0.898438 0.015625 0  0.90625 0.015625 0  0.914062 0.015625 0  0.921875 0.015625 0  0.929688 0.015625 0  0.9375 0.015625 0  0.945312 0.015625 0  0.953125 0.015625 0  0.960938 0.015625 0  0.96875 0.015625 0  0.976562 0.015625 0  0.984375 0.015625 0  0.992188 0.015625 0  1 0.015625 0  0 0.0234375 0  0.0078125 0.0234375 0  0.015625 0.0234375 0  0.0234375 0.0234375 0  0.03125 0.0234375 0  0.0390625 0.0234375 0  0.046875 0.0234375 0  0.0546875 0.0234375 0  0.0625 0.0234375 0  0.0703125 0.0234375 0  0.078125 0.0234375 0  0.0859375 0.0234375 0  0.09375 0.0234375 0  0.101562 0.0234375 0  0.109375 0.0234375 0  0.117188 0.0234375 0  0.125 0.0234375 0  0.132812 0.0234375 0  0.140625 0.0234375 0  0.148438 0.0234375 0  0.15625 0.0234375 0  0.164062 0.0234375 0  0.171875 0.0234375 0  0.179688 0.0234375 0  0.1875 0.0234375 0  0.195312 0.0234375 0  0.203125 0.0234375 0  0.210938 0.0234375 0  0.21875 0.0234375 0  0.226562 0.0234375 0  0.234375 0.0234375 0  0.242188 0.0234375 0  0.25 0.0234375 0  0.257812 0.0234375 0  0.265625 0.0234375 0  0.273438 0.0234375 0  0.28125 0.0234375 0  0.289062 0.0234375 0  0.296875 0.0234375 0  0.304688 0.0234375 0  0.3125 0.0234375 0  0.320312 0.0234375 0  0.328125 0.0234375 0  0.335938 0.0234375 0  0.34375 0.0234375 0  0.351562 0.0234375 0  0.359375 0.0234375 0  0.367188 0.0234375 0  0.375 0.0234375 0  0.382812 0.0234375 0  0.390625 0.0234375 0  0.398438 0.0234375 0  0.40625 0.0234375 0  0.414062 0.0234375 0  0.421875 0.0234375 0  0.429688 0.0234375 0  0.4375 0.0234375 0  0.445312 0.0234375 0  0.453125 0.0234375 0  0.460938 0.0234375 0  0.46875 0.0234375 0  0.476562 0.0234375 0  0.484375 0.0234375 0  0.492188 0.0234375 0  0.5 0.0234375 0  0.507812 0.0234375 0  0.515625 0.0234375 0  0.523438 0.0234375 0  0.53125 0.0234375 0  0.539062 0.0234375 0  0.546875 0.0234375 0  0.554688 0.0234375 0  0.5625 0.0234375 0  0.570312 0.0234375 0  0.578125 0.0234375 0  0.585938 0.0234375 0  0.59375 0.0234375 0  0.601562 0.0234375 0  0.609375 0.0234375 0  0.617188 0.0234375 0  0.625 0.0234375 0  0.632812 0.0234375 0  0.640625 0.0234375 0  0.648438 0.0234375 0  0.65625 0.0234375 0  0.664062 0.0234375 0  0.671875 0.0234375 0  0.679688 0.0234375 0  0.6875 0.0234375 0  0.695312 0.0234375 0  0.703125 0.0234375 0  0.710938 0.0234375 0  0.71875 0.0234375 0  0.726562 0.0234375 0  0.734375 0.0234375 0  0.742188 0.0234375 0  0.75 0.0234375 0  0.757812 0.0234375 0  0.765625 0.0234375 0  0.773438 0.0234375 0  0.78125 0.0234375 0  0.789062 0.0234375 0  0.796875 0.0234375 0  0.804688 0.0234375 0  0.8125 0.0234375 0  0.820312 0.0234375 0  0.828125 0.0234375 0  0.835938 0.0234375 0  0.84375 0.0234375 0  0.851562 0.0234375 0  0.859375 0.0234375 0  0.867188 0.0234375 0  0.875 0.0234375 0  0.882812 0.0234375 0  0.890625 0.0234375 0  0.898438 0.0234375 0  0.90625 0.0234375 0  0.914062 0.0234375 0  0.921875 0.0234375 0  0.929688 0.0234375 0  0.9375 0.0234375 0  0.945312 0.0234
[...]
<PointData  Vectors="u"> 
<DataArray  type="Float32"  Name="u"  NumberOfComponents="3" format="ascii">0.000000e+00 0.000000e+00 0.000000e+00  0.000000e+00 0.000000e+00 0.000000e+00  0.000000e+00 0.000000e+00 0.000000e+00  0.000000e+00 0.000000e+00 0.000000e+00  0.000000e+00 0.000000e+00 0.000000e+00  0.000000e+00 0.000000e+00 0.000000e+00  0.000000e+00 0.000000e+00 0.000000e+00  0.000000e+00 0.000000e+00 0.000000e+00  0.000000e+00 0.000000e+00 0.000000e+00  0.000000e+00 0.000000e+00 0.000000e+00  0.000000e+00 0.000000e+00 0.000000e+00  0.000000e+00 0.000000e+00 0.000000e+00  0.000000e+00 0.000000e+00 0.000000e+00  0.000000e+00 0.000000e+00 0.000000e+00  0.000000e+00 0.000000e+00 0.000000e+00  0.000000e+00 0.000000e+00 0.000000e+00  0.000000e+00 0.000000e+00 0.000000e+00  0.000000e+00 0.000000e+00 0.000000e+00  0.000000e+00 0.000000e+00 0.000000e+00  0.000000e+00 0.000000e+00 0.000000e+00  0.000000e+00 0.000000e+00 0.000000e+00  0.000000e+00 0.000000e+00 0.000000e+00  0.000000e+00 0.000000e+00 0.000000e+00  0.000000e+00 0.000000e+00 0.000000e+00  0.000000e+00 0.000000e+00 0.000000e+00  0.000000e+00 0.000000e+00 0.000000e+00  0.000000e+00 0.000000e+00 0.000000e+00  0.000000e+00 0.000000e+00 0.000000e+00  0.000000e+00 0.000000e+00 0.000000e+00  0.000000e+00 0.000000e+00 0.000000e+00  0.000000e+00 0.000000e+00 0.000000e+00  0.000000e+00 0.000000e+00 0.000000e+00  0.000000e+00 0.000000e+00 0.000000e+00  0.000000e+00 0.000000e+00 0.000000e+00  0.000000e+00 0.000000e+00 0.000000e+00  0.000000e+00 0.000000e+00 0.000000e+00  0.000000e+00 0.000000e+00 0.000000e+00  0.000000e+00 0.000000e+00 0.000000e+00  0.000000e+00 0.000000e+00 0.000000e+00  0.000000e+00 0.000000e+00 0.000000e+00  0.000000e+00 0.000000e+00 0.000000e+00  0.000000e+00 0.000000e+00 0.000000e+00  0.000000e+00 0.000000e+00 0.000000e+00  0.000000e+00 0.000000e+00 0.000000e+00  0.000000e+00 0.000000e+00 0.000000e+00  0.000000e+00 0.000000e+00 0.000000e+00  0.000000e+00 0.000000e+00 0.000000e+00  0.000000e+00 0.000000e+00 0.000000e+00  0.000000e+00 0.000000e+00 0.000000e+00  0.000000e+00 0.000000e+00 0.000000e+00  0.000000e+00 0.000000e+00 0.000000e+00  0.000000e+00 0.000000e+00 0.000000e+00  0.000000e+00 0.000000e+00 0.000000e+00  0.000000e+00 0.000000e+00 0.000000e+00  0.000000e+00 0.000000e+00 0.000000e+00  0.000000e+00 0.000000e+00 0.000000e+00  0.000000e+00 0.000000e+00 0.000000e+00  0.000000e+00 0.000000e+00 0.000000e+00  0.000000e+00 0.000000e+00 0.000000e+00  0.000000e+00 0.000000e+00 0.000000e+00  0.000000e+00 0.000000e+00 0.000000e+00  0.000000e+00 0.000000e+00 0.000000e+00  0.000000e+00 0.000000e+00 0.000000e+00  0.000000e+00 0.000000e+00 0.000000e+00  0.000000e+00 0.000000e+00 0.000000e+00  0.000000e+00 0.000000e+00 0.000000e+00  0.000000e+00 0.000000e+00 0.000000e+00  0.000000e+00 0.000000e+00 0.000000e+00  0.000000e+00 0.000000e+00 0.000000e+00  0.000000e+00 0.000000e+00 0.000000e+00  0.000000e+00 0.000000e+00 0.000000e+00  0.000000e+00 0.000000e+00 0.000000e+00  0.000000e+00 0.000000e+00 0.000000e+00  0.000000e+00 0.000000e+00 0.000000e+00  0.000000e+00 0.000000e+00 0.000000e+00  0.000000e+00 0.000000e+00 0.000000e+00  0.000000e+00 0.000000e+00 0.000000e+00  0.000000e+00 0.000000e+00 0.000000e+00  0.000000e+00 0.000000e+00 0.000000e+00  0.000000e+00 0.000000e+00 0.000000e+00  0.000000e+00 0.000000e+00 0.000000e+00  0.000000e+00 0.000000e+00 0.000000e+00  0.000000e+00 0.000000e+00 0.000000e+00  0.000000e+00 0.000000e+00 0.000000e+00  0.000000e+00 0.000000e+00 0.000000e+00  0.000000e+00 0.000000e+00 0.000000e+00  0.000000e+00 0.000000e+00 0.000000e+00  0.000000e+00 0.000000e+00 0.000000e+00  0.000000e+00 0.000000e+00 0.000000e+00  0.000000e+00 0.000000e+00 0.000000e+00  0.000000e+00 0.000000e+00 0.000000e+00  0.000000e+00 0.000000e+00 0.000000e+00  0.000000e+00 0.000000e+00 0.000000e+00  0.000000e+00 0.000000e+00 0.000000e+00  0.000000e+00 0.000000e+00 0.000000e+00  0.000000e+00 0.000000e+00 0.000000e+00  0.000000e+00 0.000000e+00 0.000000e+00  0.000000e+00 0.000000e+00 0.000000e+00  0.000000e+00 0.000000e+00 0.000000e+00  0.000000e+00 0.000000e+00 0.000000e+00  0.000000e+00 0.000000e+00 0.000000e+00  0.000000e+00 0.000000e+00 0.000000e+00  0.000000e+00 0.000000e+00 0.000000e+00  0.000000e+00 0.000000e+00 0.000000e+00  0.000000e+00 0.000000e+00 0.000000e+00  0.000000e+00 0.000000e+00 0.000000e+00  0.000000e+00 0.000000e+00 0.000000e+00  0.000000e+00 0.000000e+00 0.000000e+00  0.000000e+00 0.000000e+00 0.000000e+00  0.000000e+00 0.000000e+00 0.000000e+00  0.000000e+00 0.000000e+00 0.000000e+00  0.000000e+00 0.000000e+00 0.000000e+00  0.000000e+00 0.000000e+00 0.000000e+00  0.000000e+00 0.000000e+00 0.000000e+00  0.000000e+00 0.000000e+00 0.000000e+00  0.000000e+00 0.000000e+00 0.000000e+00  0.000000e+00 0.000000e+00 0.000000e+00  0.000000e+00 0.000000e+00 0.000000e+00  0.000000e+00 0.000000e+00 0.000000e+00  0.000000e+00 0.000000e+00 0.000000e+00  0.000000e+00 0.000000e+00 0.000000e+00  0.000000e+00 0.000000e+00 0.000000e+00  0.000000e+00 0.000000e+00 0.000000e+00  0.000000e+00 0.000000e+00 0.000000e+00  0.000000e+00 0.000000e+00 0.000000e+00  0.000000e+00 0.000000e+00 0.000000e+00  0.000000e+00 0.000000e+00 0.000000e+00  0.000000e+00 0.000000e+00 0.000000e+00  0.000000e+00 0.000000e+00 0.000000e+00  0.000000e+00 0.000000e+00 0.000000e+00  5.218839e-06 -5.218840e-06 0.000000e+00  1.867102e-05 -9.137008e-06 0.000000e+00  3.614415e-05 -1.009508e-05 0.000000e+00  5.304970e-05 -8.907346e-06 0.000000e+00  6.616517e-05 -6.266025e-06 0.000000e+00  7.323145e-05 -2.672135e-06 0.000000e+00  7.275607e-05 1.527717e-06 0.000000e+00  6.378662e-05 6.095179e-06 0.000000e+00  4.575464e-05 1.086261e-05 0.000000e+00  1.836890e-05 1.571004e-05 0.000000e+00  -1.845933e-05 2.055016e-05 0.000000e+00  -6.466885e-05 2.531854e-05 0.000000e+00  -1.200824e-04 2.996676e-05 0.000000e+00  -1.844533e-04 3.445954e-05 0.000000e+00  -2.574525e-04 3.876891e-05 0.000000e+00  -3.386974e-04 4.287366e-05 0.000000e+00  -4.277878e-04 4.675874e-05 0.000000e+00  -5.242997e-04 5.041299e-05 0.000000e+00  -6.277636e-04 5.382738e-05 0.000000e+00  -7.376915e-04 5.699549e-05 0.000000e+00  -8.536116e-04 5.991373e-05 0.000000e+00  -9.750481e-04 6.258004e-05 0.000000e+00  -1.101491e-03 6.499302e-05 0.000000e+00  -1.232425e-03 6.715246e-05 0.000000e+00  -1.367369e-03 6.905972e-05 0.000000e+00  -1.505848e-03 7.071683e-05 0.000000e+00  -1.647353e-03 7.212605e-05 0.000000e+00  -1.791380e-03 7.329033e-05 0.000000e+00  -1.937468e-03 7.421346e-05 0.000000e+00  -2.085164e-03 7.489958e-05 0.000000e+00  -2.233985e-03 7.535298e-05 0.000000e+00  -2.383458e-03 7.557840e-05 0.000000e+00  -2.533155e-03 7.558099e-05 0.000000e+00  -2.682661e-03 7.536603e-05 0.000000e+00  -2.831531e-03 7.493906e-05 0.000000e+00  -2.979334e-03 7.430596e-05 0.000000e+00  -3.125686e-03 7.347261e-05 0.000000e+00  -3.270215e-03 7.244499e-05 0.000000e+00  -3.412524e-03 7.122947e-05 0.000000e+00  -3.552229e-03 6.983264e-05 0.000000e+00  -3.688997e-03 6.826088e-05 0.000000e+00  -3.822504e-03 6.652058e-05 0.000000e+00  -3.952405e-03 6.461870e-05 0.000000e+00  -4.078371e-03 6.256235e-05 0.000000e+00  -4.200120e-03 6.035821e-05 0.000000e+00  -4.317380e-03 5.801300e-05 0.000000e+00  -4.429862e-03 5.553410e-05 0.000000e+00  -4.537297e-03 5.292900e-05 0.000000e+00  -4.639454e-03 5.020461e-05 0.000000e+00  -4.736118e-03 4.736786e-05 0.000000e+00  -4.827058e-03 4.442642e-05 0.000000e+00  -4.912065e-03 4.138806e-05 0.000000e+00  -4.990964e-03 3.825981e-05 0.000000e+00  -5.063595e-03 3.504870e-05 0.000000e+00  -5.129790e-03 3.176258e-05 0.000000e+00  -5.189400e-03 2.840937e-05 0.000000e+00  -5.242309e-03 2.499613e-05 0.000000e+00  -5.288409e-03 2.152992e-05 0.000000e+00  -5.327597e-03 1.801867e-05 0.000000e+00  -5.359787e-03 1.447036e-05 0.000000e+00  -5.384918e-03 1.089203e-05 0.000000e+00  -5.402940e-03 7.290732e-06 0.000000e+00  -5.413811e-03 3.674427e-06 0.000000e+00  -5.417509e-03 5.109410e-08 0.000000e+00  -5.414028e-03 -3.572225e-06 0.000000e+00  -5.403375e-03 -7.188495e-06 0.000000e+00  -5.385571e-03 -1.078975e-05 0.000000e+00  -5.360658e-03 -1.436802e-05 0.000000e+00  -5.328685e-03 -1.791627e-05 0.000000e+00  -5.289714e-03 -2.142747e-05 0.000000e+00  -5.243831e-03 -2.489367e-05 0.000000e+00  -5.191140e-03 -2.830695e-05 0.000000e+00  -5.131746e-03 -3.166031e-05 0.000000e+00  -5.065766e-03 -3.494672e-05 0.000000e+00  -4.993350e-03 -3.815834e-05 0.000000e+00  -4.914663e-03 -4.128737e-05 0.000000e+00  -4.829866e-03 -4.432686e-05 0.000000e+00  -4.739133e-03 -4.726989e-05 0.000000e+00  -4.642672e-03 -5.010879e-05 0.000000e+00  -4.540712e-03 -5.283598e-05 0.000000e+00  -4.433467e-03 -5.544467e-05 0.000000e+00  -4.321166e-03 -5.792805e-05 0.000000e+00  -4.204077e-03 -6.027874e-05 0.000000e+00  -4.082487e-03 -6.248944e-05 0.000000e+00  -3.956664e-03 -6.455352e-05 0.000000e+00  -3.826890e-03 -6.646436e-05 0.000000e+00  -3.693490e-03 -6.821484e-05 0.000000e+00  -3.556807e-03 -6.979800e-05 0.000000e+00  -3.417162e-03 -7.120738e-05 0.000000e+00  -3.274887e-03 -7.243648e-05 0.000000e+00  -3.130364e-03 -7.347857e-05 0.000000e+00  -2.983988e-03 -7.432707e-05 0.000000e+00  -2.836130e-03 -7.497575e-05 0.000000e+00  -2.687173e-03 -7.541842e-05 0.000000e+00  -2.537549e-03 -7.564890e-05 0.000000e+00  -2.387703e-03 -7.566130e-05 0.000000e+00  -2.238052e-03 -7.544999e-05 0.000000e+00  -2.089025e-03 -7.500949e-05 0.000000e+00  -1.941099e-03 -7.433473e-05 0.000000e+00  -1.794759e-03 -7.342111e-05 0.000000e+00  -1.650462e-03 -7.226428e-05 0.000000e+00  -1.508673e-03 -7.086025e-05 0.000000e+00  -1.369901e-03 -6.920594e-05 0.000000e+00  -1.234659e-03 -6.729902e-05 0.000000e+00  -1.103428e-03 -6.513749e-05 0.000000e+00  -9.766923e-04 -6.272005e-05 0.000000e+00  -8.549720e-04 -6.004703e-05 0.000000e+00  -7.387812e-04 -5.712004e-05 0.000000e+00  -6.285993e-04 -5.394136e-05 0.000000e+00  -5.249012e-04 -5.051481e-05 0.000000e+00  -4.281776e-04 -4.684711e-05 0.000000e+00  -3.389000e-04 -4.294758e-05 0.000000e+00  -2.574940e-04 -3.882769e-05 0.000000e+00  -1.843606e-04 -3.450277e-05 0.000000e+00  -1.198826e-04 -2.999433e-05 0.000000e+00  -6.438893e-05 -2.533062e-05 0.000000e+00  -1.812809e-05 -2.054760e-05 0.000000e+00  1.873204e-05 -1.569306e-05 0.000000e+00  4.612562e-05 -1.083249e-05 0.000000e+00  6.414210e-05 -6.054391e-06 0.000000e+00  7.307982e-05 -1.478972e-06 0.000000e+00  7.351008e-05 2.725277e-06 0.000000e+00  6.638831e-05 6.316716e-06 0.000000e+00  5.321327e-05 8.945160e-06 0.000000e+00  3.623302e-05 1.009893e-05 0.000000e+00  1.876331e-05 9.075316e-06 0.000000e+00  5.126093e-06 5.126493e-06 0.000000e+00  0.000000e+00 0.000000e+00 0.000000e+00  0.000000e+00 0.000000e+00 0.000000e+00  9.142586e-06 -1.867440e-05 0.000000e+00  2.957841e-05 -2.956309e-05 0.000000e+00  5.367106e-05 -3.167537e-05 0.000000e+00  7.521378e-05 -2.679802e-05 0.000000e+00  8.935769e-05 -1.688783e-05 0.000000e+00  9.244293e-05 -3.514645e-06 0.000000e+00  8.187471e-05 1.216121e-05 0.000000e+00  5.588584e-05 2.929440e-05 0.000000e+00  1.335066e-05 4.726706e-05 0.000000e+00  -4.636715e-05 6.562365e-05 0.000000e+00  -1.235304e-04 8.402467e-05 0.000000e+00  -2.181155e-04 1.022146e-04 0.000000e+00  -3.298705e-04 1.199985e-04 0.000000e+00  -4.584037e-04 1.372314e-04 0.000000e+00  -6.031541e-04 1.537976e-04 0.000000e+00  -7.634495e-04 1.696079e-04 0.000000e+00  -9.385766e-04 1.845977e-04 0.000000e+00  -1.127768e-03 1.987183e-04 0.000000e+00  -1.330161e-03 2.119297e-04 0.000000e+00  -1.544852e-03 2.242028e-04 0.000000e+00  -1.770962e-03 2.355201e-04 0.000000e+00  -2.007602e-03 2.458703e-04 0.000000e+00  -2.253809e-03 2.552452e-04 0.000000e+00  -2.508611e-03 2.636416e-04 0.000000e+00  -2.771094e-03 2.710626e-04 0.000000e+00  -3.040353e-03 2.775144e-04 0.000000e+00  -3.315419e-03 2.830040e-04 0.000000e+00  -3.595326e-03 2.875417e-04 0.000000e+00  -3.879191e-03 2.911410e-04 0.000000e+00  -4.166145e-03 2.938168e-04 0.000000e+00  -4.455261e-03 2.955851e-04 0.000000e+00  -4.745623e-03 2.964635e-04 0.000000e+00  -5.036411e-03 2.964714e-04 0.000000e+00  -5.326821e-03 2.956289e-04 0.000000e+00  -5.615996e-03 2.939570e-04 0.000000e+00  -5.903097e-03 2.914783e-04 0.000000e+00  -6.187384e-03 2.882154e-04 0.000000e+00  -6.468137e-03 2.841913e-04 0.000000e+00  -6.744584e-03 2.794306e-04 0.000000e+00  -7.015984e-03 2.739589e-04 0.000000e+00  -7.281685e-03 2.678011e-04 0.000000e+00  -7.541060e-03 2.609819e-04 0.000000e+00  -7.793440e-03 2.535284e-04 0.000000e+00  -8.038186e-03 2.454684e-04 0.000000e+00  -8.274746e-03 2.368281e-04 0.000000e+00  -8.502593e-03 2.276337e-04 0.000000e+00  -8.721167e-03 2.179139e-04 0.000000e+00  -8.929940e-03 2.076982e-04 0.000000e+00  -9.128466e-03 1.970138e-04 0.000000e+00  -9.316321e-03 1.858876e-04 0.000000e+00  -9.493061e-03 1.743497e-04 0.000000e+00  -9.658276e-03 1.624308e-04 0.000000e+00  -9.811626e-03 1.501583e-04 0.000000e+00  -9.952797e-03 1.375599e-04 0.000000e+00  -1.008146e-02 1.246663e-04 0.000000e+00  -1.019733e-02 1.115088e-04 0.000000e+00  -1.030018e-02 9.811509e-05 0.000000e+00  -1.038979e-02 8.451286e-05 0.000000e+00  -1.046597e-02 7.073337e-05 0.000000e+00  -1.052855e-02 5.680792e-05 0.000000e+00  -1.057741e-02 4.276430e-05 0.000000e+00  -1.061245e-02 2.863023e-05 0.000000e+00  -1.063359e-02 1.443704e-05 0.000000e+00  -1.064078e-02 2.161246e-07 0.000000e+00  -1.063402e-02 -1.400481e-05 0.000000e+00  -1.061332e-02 -2.819804e-05 0.000000e+00  -1.057872e-02 -4.233221e-05 0.000000e+00  -1.053030e-02 -5.637601e-05 0.000000e+00  -1.046815e-02 -7.030174e-05 0.000000e+00  -1.039240e-02 -8.408170e-05 0.000000e+00  -1.030322e-02 -9.768464e-05 0.000000e+00  -1.020081e-02 -1.110795e-04 0.000000e+00  -1.008537e-02 -1.242386e-04 0.000000e+00  -9.957127e-03 -1.371344e-04 0.000000e+00  -9.816380e-03 -1.497361e-04 0.000000e+00  -9.663448e-03 -1.620130e-04 0.000000e+00  -9.498646e-03 -1.739379e-04 0.000000e+00  -9.322310e-03 -1.854835e-04 0.000000e+00  -9.134850e-03 -1.966197e-04 0.000000e+00  -8.936707e-03 -2.073169e-04 0.000000e+00  -8.728301e-03 -2.175483e-04 0.000000e+00  -8.510077e-03 -2.272873e-04 0.000000e+00  -8.282558e-03 -2.365048e-04 0.000000e+00  -8.046300e-03 -2.451724e-04 0.000000e+00  -7.801827e-03 -2.532642e-04 0.000000e+00  -7.549686e-03 -2.607541e-04 0.000000e+00  -7.290510e-03 -2.676144e-04 0.000000e+00  -7.024967e-03 -2.738179e-04 0.000000e+00  -6.753678e-03 -2.793396e-04 0.000000e+00  -6.477290e-03 -2.841542e-04 0.000000e+00  -6.196543e-03 -2.882355e-04 0.000000e+00  -5.912205e-03 -2.915581e-04 0.000000e+00  -5.624994e-03 -2.940981e-04 0.000000e+00  -5.335651e-03 -2.958316e-04 0.000000e+00  -5.045013e-03 -2.967351e-04 0.000000e+00  -4.753939e-03 -2.967861e-04 0.000000e+00  -4.463236e-03 -2.959632e-04 0.000000e+00  -4.173729e-03 -2.942460e-04 0.000000e+00  -3.886336e-03 -2.916153e-04 0.000000e+00  -3.601992e-03 -2.880544e-04 0.000000e+00  -3.321573e-03 -2.835473e-04 0.000000e+00  -3.045971e-03 -2.780798e-04 0.000000e+00  -2.776157e-03 -2.716413e-04 0.000000e+00  -2.513110e-03 -2.642244e-04 0.000000e+00  -2.257745e-03 -2.558231e-04 0.000000e+00  -2.010983e-03 -2.464346e-04 0.000000e+00  -1.773803e-03 -2.360625e-04 0.000000e+00  -1.547177e-03 -2.247157e-04 0.000000e+00  -1.332002e-03 -2.124065e-04 0.000000e+00  -1.129159e-03 -1.991533e-04 0.000000e+00  -9.395602e-04 -1.849864e-04 0.000000e+00  -7.640702e-04 -1.699467e-04 0.000000e+00  -6.034596e-04 -1.540843e-04 0.000000e+00  -4.584434e-04 -1.374648e-04 0.000000e+00  -3.296945e-04 -1.201785e-04 0.000000e+00  -2.177734e-04 -1.023424e-04 0.000000e+00  -1.230759e-04 -8.410370e-05 0.000000e+00  -4.583513e-05 -6.565494e-05 0.000000e+00  1.391549e-05 -4.725522e-05 0.000000e+00  5.643867e-05 -2.924767e-05 0.000000e+00  8.238464e-05 -1.208683e-05 0.000000e+00  9.288543e-05 3.609946e-06 0.000000e+00  8.971070e-05 1.699345e-05 0.000000e+00  7.547050e-05 2.690174e-05 0.000000e+00  5.382446e-05 3.177474e-05 0.000000e+00  2.966948e-05 2.965488e-05 0.000000e+00  9.079535e-06 1.876597e-05 0.000000e+00  0.000000e+00 0.000000e+00 0.000000e+00  0.000000e+00 0.000000e+00 0.000000e+00  1.012670e-05 -3.617961e-05 0.000000e+00  3.178378e-05 -5.368884e-05 0.000000e+00  5.503373e-05 -5.487588e-05 0.000000e+00  7.262637e-05 -4.308604e-05 0.000000e+00  7.888122e-05 -2.160051e-05 0.000000e+00  6.939742e-05 6.831560e-06 0.000000e+00  4.090032e-05 4.005472e-05 0.000000e+00  -8.945039e-06 7.642053e-05 0.000000e+00  -8.169992e-05 1.146779e-04 0.000000e+00  -1.783047e-04 1.538762e-04 0.000000e+00  -2.992046e-04 1.932892e-04 0.000000e+00  -4.444518e-04 2.323594e-04 0.000000e+00  -6.137746e-04 2.706536e-04 0.000000e+00  -8.067003e-04 3.078451e-04 0.000000e+00  -1.022504e-03 3.436690e-04 0.000000e+00  -1.260293e-03 3.779189e-04 0.000000e+00  -1.519110e-03 4.104426e-04 0.000000e+00  -1.797909e-03 4.411232e-04 0.000000e+00  -2.095499e-03 4.698642e-04 0.000000e+00  -2.410622e-03 4.965937e-04 0.000000e+00  -2.742050e-03 5.212659e-04 0.000000e+00  -3.088535e-03 5.438497e-04 0.000000e+00  -3.448714e-03 5.643212e-04 0.000000e+00  -3.821206e-03 5.826684e-04 0.000000e+00  -4.204714e-03 5.988938e-04 0.000000e+00  -4.597946e-03 6.130067e-04 0.000000e+00  -4.999513e-03 6.250194e-04 0.000000e+00  -5.408031e-03 6.349511e-04 0.000000e+00  -5.822231e-03 6.428290e-04 0.000000e+00  -6.240863e-03 6.486835e-04 0.000000e+00  -6.662587e-03 6.525474e-04 0.000000e+00  -7.086084e-03 6.544579e-04 0.000000e+00  -7.510167e-03 6.544560e-04 0.000000e+00  -7.933672e-03 6.525842e-04 0.000000e+00  -8.355356e-03 6.488878e-04 0.000000e+00  -8.774005e-03 6.434152e-04 0.000000e+00  -9.188543e-03 6.362155e-04 0.000000e+00  -9.597924e-03 6.273385e-04 0.000000e+00  -1.000103e-02 6.168377e-04 0.000000e+00  -1.039677e-02 6.047689e-04 0.000000e+00  -1.078421e-02 5.911862e-04 0.000000e+00  -1.116244e-02 5.761440e-04 0.000000e+00  -1.153047e-02 5.597017e-04 0.000000e+00  -1.188737e-02 5.419201e-04 0.000000e+00  -1.223234e-02 5.228567e-04 0.000000e+00  -1.256462e-02 5.025693e-04 0.000000e+00  -1.288338e-02 4.811211e-04 0.000000e+00  -1.318786e-02 4.585769e-04 0.000000e+00  -1.347740e-02 4.349964e-04 0.000000e+00  -1.375138e-02 4.104394e-04 0.000000e+00  -1.400916e-02 3.849723e-04 0.000000e+00  -1.425014e-02 3.586622e-04 0.000000e+00  -1.447382e-02 3.315702e-04 0.000000e+00  -1.467973e-02 3.037572e-04 0.000000e+00  -1.486741e-02 2.752914e-04 0.000000e+00  -1.503643e-02 2.462413e-04 0.000000e+00  -1.518646e-02 2.166685e-04 0.000000e+00  -1.531719e-02 1.866344e-04 0.000000e+00  -1.542832e-02 1.562078e-04 0.000000e+00  -1.551962e-02 1.254581e-04 0.000000e+00  -1.559089e-02 9.444673e-05 0.000000e+00  -1.564202e-02 6.323512e-05 0.000000e+00  -1.567286e-02 3.189258e-05 0.000000e+00  -1.568337e-02 4.885551e-07 0.000000e+00  -1.567352e-02 -3.091559e-05 0.000000e+00  -1.564333e-02 -6.225850e-05 0.000000e+00  -1.559286e-02 -9.347076e-05 0.000000e+00  -1.552223e-02 -1.244831e-04 0.000000e+00  -1.543159e-02 -1.552342e-04 0.000000e+00  -1.532111e-02 -1.856628e-04 0.000000e+00  -1.519102e-02 -2.156997e-04 0.000000e+00  -1.504164e-02 -2.452762e-04 0.000000e+00  -1.487326e-02 -2.743313e-04 0.000000e+00  -1.468621e-02 -3.028039e-04 0.000000e+00  -1.448093e-02 -3.306258e-04 0.000000e+00  -1.425787e-02 -3.577295e-04 0.000000e+00  -1.401750e-02 -3.840547e-04 0.000000e+00  -1.376032e-02 -4.095412e-04 0.000000e+00  -1.348691e-02 -4.341225e-04 0.000000e+00  -1.319793e-02 -4.577331e-04 0.000000e+00  -1.289399e-02 -4.803141e-04 0.000000e+00  -1.257574e-02 -5.018068e-04 0.000000e+00  -1.224394e-02 -5.221471e-04 0.000000e+00  -1.189940e-02 -5.412722e-04 0.000000e+00  -1.154288e-02 -5.591252e-04 0.000000e+00  -1.117520e-02 -5.756489e-04 0.000000e+00  -1.079726e-02 -5.907822e-04 0.000000e+00  -1.041004e-02 -6.044659e-04 0.000000e+00  -1.001445e-02 -6.166447e-04 0.000000e+00  -9.611424e-03 -6.272637e-04 0.000000e+00  -9.202045e-03 -6.362657e-04 0.000000e+00  -8.787428e-03 -6.435955e-04 0.000000e+00  -8.368616e-03 -6.492011e-04 0.000000e+00  -7.946685e-03 -6.530313e-04 0.000000e+00  -7.522848e-03 -6.550351e-04 0.000000e+00  -7.098353e-03 -6.551645e-04 0.000000e+00  -6.674365e-03 -6.533740e-04 0.000000e+00  -6.252077e-03 -6.496202e-04 