<?xml version="1.0"?>
<VTKFile type="UnstructuredGrid"  version="0.1"  >
<UnstructuredGrid>
<Piece  NumberOfPoints="16641" NumberOfCells="32768">
<Points>
<DataArray  type="Float32"  NumberOfComponents="3"  format="ascii">0 0 0  0.0078125 0 0  0.015625 0 0  0.0234375 0 0  0.03125 0 0  0.0390625 0 0  0.046875 0 0  0.0546875 0 0  0.0625 0 0  0.0703125 0 0  0.078125 0 0  0.0859375 0 0  0.09375 0 0  0.101562 0 0  0.109375 0 0  0.117188 0 0  0.125 0 0  0.132812 0 0  0.140625 0 0  0.148438 0 0  0.15625 0 0  0.164062 0 0  0.171875 0 0  0.179688 0 0  0.1875 0 0  0.195312 0 0  0.203125 0 0  0.210938 0 0  0.21875 0 0  0.226562 0 0  0.234375 0 0  0.242188 0 0  0.25 0 0  0.257812 0 0  0.265625 0 0  0.273438 0 0  0.28125 0 0  0.289062 0 0  0.296875 0 0  0.304688 0 0  0.3125 0 0  0.320312 0 0  0.328125 0 0  0.335938 0 0  0.34375 0 0  0.351562 0 0  0.359375 0 0  0.367188 0 0  0.375 0 0  0.382812 0 0  0.390625 0 0  0.398438 0 0  0.40625 0 0  0.414062 0 0  0.421875 0 0  0.429688 0 0  0.4375 0 0  0.445312 0 0  0.453125 0 0  0.460938 0 0  0.46875 0 0  0.476562 0 0  0.484375 0 0  0.492188 0 0  0.5 0 0  0.507812 0 0  0.515625 0 0  0.523438 0 0  0.53125 0 0  0.539062 0 0  0.546875 0 0  0.554688 0 0  0.5625 0 0  0.570312 0 0  0.578125 0 0  0.585938 0 0  0.59375 0 0  0.601562 0 0  0.609375 0 0  0.617188 0 0  0.625 0 0  0.632812 0 0  0.640625 0 0  0.648438 0 0  0.65625 0 0  0.664062 0 0  0.671875 0 0  0.679688 0 0  0.6875 0 0  0.695312 0 0  0.703125 0 0  0.710938 0 0  0.71875 0 0  0.726562 0 0  0.734375 0 0  0.742188 0 0  0.75 0 0  0.757812 0 0  0.765625 0 0  0.773438 0 0  0.78125 0 0  0.789062 0 0  0.796875 0 0  0.804688 0 0  0.8125 0 0  0.820312 0 0  0.828125 0 0  0.835938 0 0  0.84375 0 0  0.851562 0 0  0.859375 0 0  0.867188 0 0  0.875 0 0  0.882812 0 0  0.890625 0 0  0.898438 0 0  0.90625 0 0  0.914062 0 0  0.921875 0 0  0.929688 0 0  0.9375 0 0  0.945312 0 0  0.953125 0 0  0.960938 0 0  0.96875 0 0  0.976562 0 0  0.984375 0 0  0.992188 0 0  1 0 0  0 0.0078125 0  0.0078125 0.0078125 0  0.015625 0.0078125 0  0.0234375 0.0078125 0  0.03125 0.0078125 0  0.0390625 0.0078125 0  0.046875 0.0078125 0  0.0546875 0.0078125 0  0.0625 0.0078125 0  0.0703125 0.0078125 0  0.078125 0.0078125 0  0.0859375 0.0078125 0  0.09375 0.0078125 0  0.101562 0.0078125 0  0.109375 0.0078125 0  0.117188 0.0078125 0  0.125 0.0078125 0  0.132812 0.0078125 0  0.140625 0.0078125 0  0.148438 0.0078125 0  0.15625 0.0078125 0  0.164062 0.0078125 0  0.171875 0.0078125 0  0.179688 0.0078125 0  0.1875 0.0078125 0  0.195312 0.0078125 0  0.203125 0.0078125 0  0.210938 0.0078125 0  0.21875 0.0078125 0  0.226562 0.0078125 0  0.234375 0.0078125 0  0.242188 0.0078125 0  0.25 0.0078125 0  0.257812 0.0078125 0  0.265625 0.0078125 0  0.273438 0.0078125 0  0.28125 0.0078125 0  0.289062 0.0078125 0  0.296875 0.0078125 0  0.304688 0.0078125 0  0.3125 0.0078125 0  0.320312 0.0078125 0  0.328125 0.0078125 0  0.335938 0.0078125 0  0.34375 0.0078125 0  0.351562 0.0078125 0  0.359375 0.0078125 0  0.367188 0.0078125 0  0.375 0.0078125 0  0.382812 0.0078125 0  0.390625 0.0078125 0  0.398438 0.0078125 0  0.40625 0.0078125 0  0.414062 0.0078125 0  0.421875 0.0078125 0  0.429688 0.0078125 0  0.4375 0.0078125 0  0.445312 0.0078125 0  0.453125 0.0078125 0  0.460938 0.0078125 0  0.46875 0.0078125 0  0.476562 0.0078125 0  0.484375 0.0078125 0  0.492188 0.0078125 0  0.5 0.0078125 0  0.507812 0.0078125 0  0.515625 0.0078125 0  0.523438 0.0078125 0  0.53125 0.0078125 0  0.539062 0.0078125 0  0.546875 0.0078125 0  0.554688 0.0078125 0  0.5625 0.0078125 0  0.570312 0.0078125 0  0.578125 0.0078125 0  0.585938 0.0078125 0  0.59375 0.0078125 0  0.601562 0.0078125 0  0.609375 0.0078125 0  0.617188 0.0078125 0  0.625 0.0078125 0  0.632812 0.0078125 0  0.640625 0.0078125 0  0.648438 0.0078125 0  0.65625 0.0078125 0  0.664062 0.0078125 0  0.671875 0.0078125 0  0.679688 0.0078125 0  0.6875 0.0078125 0  0.695312 0.0078125 0  0.703125 0.0078125 0  0.710938 0.0078125 0  0.71875 0.0078125 0  0.726562 0.0078125 0  0.734375 0.0078125 0  0.742188 0.0078125 0  0.75 0.0078125 0  0.757812 0.0078125 0  0.765625 0.0078125 0  0.773438 0.0078125 0  0.78125 0.0078125 0  0.789062 0.0078125 0  0.796875 0.0078125 0  0.804688 0.0078125 0  0.8125 0.0078125 0  0.820312 0.0078125 0  0.828125 0.0078125 0  0.835938 0.0078125 0  0.84375 0.0078125 0  0.851562 0.0078125 0  0.859375 0.0078125 0  0.867188 0.0078125 0  0.875 0.0078125 0  0.882812 0.0078125 0  0.890625 0.0078125 0  0.898438 0.0078125 0  0.90625 0.0078125 0  0.914062 0.0078125 0  0.921875 0.0078125 0  0.929688 0.0078125 0  0.9375 0.0078125 0  0.945312 0.0078125 0  0.953125 0.0078125 0  0.960938 0.0078125 0  0.96875 0.0078125 0  0.976562 0.0078125 0  0.984375 0.0078125 0  0.992188 0.0078125 0  1 0.0078125 0  0 0.015625 0  0.0078125 0.015625 0  0.015625 0.015625 0  0.0234375 0.015625 0  0.03125 0.015625 0  0.0390625 0.015625 0  0.046875 0.015625 0  0.0546875 0.015625 0  0.0625 0.015625 0  0.0703125 0.015625 0  0.078125 0.015625 0  0.0859375 0.015625 0  0.09375 0.015625 0  0.101562 0.015625 0  0.109375 0.015625 0  0.117188 0.015625 0  0.125 0.015625 0  0.132812 0.015625 0  0.140625 0.015625 0  0.148438 0.015625 0  0.15625 0.015625 0  0.164062 0.015625 0  0.171875 0.015625 0  0.179688 0.015625 0  0.1875 0.015625 0  0.195312 0.015625 0  0.203125 0.015625 0  0.210938 0.015625 0  0.21875 0.015625 0  0.226562 0.015625 0  0.234375 0.015625 0  0.242188 0.015625 0  0.25 0.015625 0  0.257812 0.015625 0  0.265625 0.015625 0  0.273438 0.015625 0  0.28125 0.015625 0  0.289062 0.015625 0  0.296875 0.015625 0  0.304688 0.015625 0  0.3125 0.015625 0  0.320312 0.015625 0  0.328125 0.015625 0  0.335938 0.015625 0  0.34375 0.015625 0  0.351562 0.015625 0  0.359375 0.015625 0  0.367188 0.015625 0  0.375 0.015625 0  0.382812 0.015625 0  0.390625 0.015625 0  0.398438 0.015625 0  0.40625 0.015625 0  0.414062 0.015625 0  0.421875 0.015625 0  0.429688 0.015625 0  0.4375 0.015625 0  0.445312 0.015625 0  0.453125 0.015625 0  0.460938 0.015625 0  0.46875 0.015625 0  0.476562 0.015625 0  0.484375 0.015625 0  0.492188 0.015625 0  0.5 0.015625 0  0.507812 0.015625 0  0.515625 0.015625 0  0.523438 0.015625 0  0.53125 0.015625 0  0.539062 0.015625 0  0.546875 0.015625 0  0.554688 0.015625 0  0.5625 0.015625 0  0.570312 0.015625 0  0.578125 0.015625 0  0.585938 0.015625 0  0.59375 0.015625 0  0.601562 0.015625 0  0.609375 0.015625 0  0.617188 0.015625 0  0.625 0.015625 0  0.632812 0.015625 0  0.640625 0.015625 0  0.648438 0.015625 0  0.65625 0.015625 0  0.664062 0.015625 0  0.671875 0.015625 0  0.679688 0.015625 0  0.6875 0.015625 0  0.695312 0.015625 0  0.703125 0.015625 0  0.710938 0.015625 0  0.71875 0.015625 0  0.726562 0.015625 0  0.734375 0.015625 0  0.742188 0.015625 0  0.75 0.015625 0  0.757812 0.015625 0  0.765625 0.015625 0  0.773438 0.015625 0  0.78125 0.015625 0  0.789062 0.015625 0  0.796875 0.015625 0  0.804688 0.015625 0  0.8125 0.015625 0  0.820312 0.015625 0  0.828125 0.015625 0  0.835938 0.015625 0  0.84375 0.015625 0  0.851562 0.015625 0  0.859375 0.015625 0  0.867188 0.015625 0  0.875 0.015625 0  0.882812 0.015625 0  0.890625 0.015625 0  0.898438 0.015625 0  0.90625 0.015625 0  0.914062 0.015625 0  0.921875 0.015625 0  0.929688 0.015625 0  0.9375 0.015625 0  0.945312 0.015625 0  0.953125 0.015625 0  0.960938 0.015625 0  0.96875 0.015625 0  0.976562 0.015625 0  0.984375 0.015625 0  0.992188 0.015625 0  1 0.015625 0  0 0.0234375 0  0.0078125 0.0234375 0  0.015625 0.0234375 0  0.0234375 0.0234375 0  0.03125 0.0234375 0  0.0390625 0.0234375 0  0.046875 0.0234375 0  0.0546875 0.0234375 0  0.0625 0.0234375 0  0.0703125 0.0234375 0  0.078125 0.0234375 0  0.0859375 0.0234375 0  0.09375 0.0234375 0  0.101562 0.0234375 0  0.109375 0.0234375 0  0.117188 0.0234375 0  0.125 0.0234375 0  0.132812 0.0234375 0  0.140625 0.0234375 0  0.148438 0.0234375 0  0.15625 0.0234375 0  0.164062 0.0234375 0  0.171875 0.0234375 0  0.179688 0.0234375 0  0.1875 0.0234375 0  0.195312 0.0234375 0  0.203125 0.0234375 0  0.210938 0.0234375 0  0.21875 0.0234375 0  0.226562 0.0234375 0  0.234375 0.0234375 0  0.242188 0.0234375 0  0.25 0.0234375 0  0.257812 0.0234375 0  0.265625 0.0234375 0  0.273438 0.0234375 0  0.28125 0.0234375 0  0.289062 0.0234375 0  0.296875 0.0234375 0  0.304688 0.0234375 0  0.3125 0.0234375 0  0.320312 0.0234375 0  0.328125 0.0234375 0  0.335938 0.0234375 0  0.34375 0.0234375 0  0.351562 0.0234375 0  0.359375 0.0234375 0  0.367188 0.0234375 0  0.375 0.0234375 0  0.382812 0.0234375 0  0.390625 0.0234375 0  0.398438 0.0234375 0  0.40625 0.0234375 0  0.414062 0.0234375 0  0.421875 0.0234375 0  0.429688 0.0234375 0  0.4375 0.0234375 0  0.445312 0.0234375 0  0.453125 0.0234375 0  0.460938 0.0234375 0  0.46875 0.0234375 0  0.476562 0.0234375 0  0.484375 0.0234375 0  0.492188 0.0234375 0  0.5 0.0234375 0  0.507812 0.0234375 0  0.515625 0.0234375 0  0.523438 0.0234375 0  0.53125 0.0234375 0  0.539062 0.0234375 0  0.546875 0.0234375 0  0.554688 0.0234375 0  0.5625 0.0234375 0  0.570312 0.0234375 0  0.578125 0.0234375 0  0.585938 0.0234375 0  0.59375 0.0234375 0  0.601562 0.0234375 0  0.609375 0.0234375 0  0.617188 0.0234375 0  0.625 0.0234375 0  0.632812 0.0234375 0  0.640625 0.0234375 0  0.648438 0.0234375 0  0.65625 0.0234375 0  0.664062 0.0234375 0  0.671875 0.0234375 0  0.679688 0.0234375 0  0.6875 0.0234375 0  0.695312 0.0234375 0  0.703125 0.0234375 0  0.710938 0.0234375 0  0.71875 0.0234375 0  0.726562 0.0234375 0  0.734375 0.0234375 0  0.742188 0.0234375 0  0.75 0.0234375 0  0.757812 0.0234375 0  0.765625 0.0234375 0  0.773438 0.0234375 0  0.78125 0.0234375 0  0.789062 0.0234375 0  0.796875 0.0234375 0  0.804688 0.0234375 0  0.8125 0.0234375 0  0.820312 0.0234375 0  0.828125 0.0234375 0  0.835938 0.0234375 0  0.84375 0.0234375 0  0.851562 0.0234375 0  0.859375 0.0234375 0  0.867188 0.0234375 0  0.875 0.0234375 0  0.882812 0.0234375 0  0.890625 0.0234375 0  0.898438 0.0234375 0  0.90625 0.0234375 0  0.914062 0.0234375 0  0.921875 0.0234375 0  0.929688 0.0234375 0  0.9375 0.0234375 0  0.945312 0.0234
[...]
<PointData  Vectors="u"> 
<DataArray  type="Float32"  Name="u"  NumberOfComponents="3" format="ascii">0.000000e+00 0.000000e+00 0.000000e+00  0.000000e+00 0.000000e+00 0.000000e+00  0.000000e+00 0.000000e+00 0.000000e+00  0.000000e+00 0.000000e+00 0.000000e+00  0.000000e+00 0.000000e+00 0.000000e+00  0.000000e+00 0.000000e+00 0.000000e+00  0.000000e+00 0.000000e+00 0.000000e+00  0.000000e+00 0.000000e+00 0.000000e+00  0.000000e+00 0.000000e+00 0.000000e+00  0.000000e+00 0.000000e+00 0.000000e+00  0.000000e+00 0.000000e+00 0.000000e+00  0.000000e+00 0.000000e+00 0.000000e+00  0.000000e+00 0.000000e+00 0.000000e+00  0.000000e+00 0.000000e+00 0.000000e+00  0.000000e+00 0.000000e+00 0.000000e+00  0.000000e+00 0.000000e+00 0.000000e+00  0.000000e+00 0.000000e+00 0.000000e+00  0.000000e+00 0.000000e+00 0.000000e+00  0.000000e+00 0.000000e+00 0.000000e+00  0.000000e+00 0.000000e+00 0.000000e+00  0.000000e+00 0.000000e+00 0.000000e+00  0.000000e+00 0.000000e+00 0.000000e+00  0.000000e+00 0.000000e+00 0.000000e+00  0.000000e+00 0.000000e+00 0.000000e+00  0.000000e+00 0.000000e+00 0.000000e+00  0.000000e+00 0.000000e+00 0.000000e+00  0.000000e+00 0.000000e+00 0.000000e+00  0.000000e+00 0.000000e+00 0.000000e+00  0.000000e+00 0.000000e+00 0.000000e+00  0.000000e+00 0.000000e+00 0.000000e+00  0.000000e+00 0.000000e+00 0.000000e+00  0.000000e+00 0.000000e+00 0.000000e+00  0.000000e+00 0.000000e+00 0.000000e+00  0.000000e+00 0.000000e+00 0.000000e+00  0.000000e+00 0.000000e+00 0.000000e+00  0.000000e+00 0.000000e+00 0.000000e+00  0.000000e+00 0.000000e+00 0.000000e+00  0.000000e+00 0.000000e+00 0.000000e+00  0.000000e+00 0.000000e+00 0.000000e+00  0.000000e+00 0.000000e+00 0.000000e+00  0.000000e+00 0.000000e+00 0.000000e+00  0.000000e+00 0.000000e+00 0.000000e+00  0.000000e+00 0.000000e+00 0.000000e+00  0.000000e+00 0.000000e+00 0.000000e+00  0.000000e+00 0.000000e+00 0.000000e+00  0.000000e+00 0.000000e+00 0.000000e+00  0.000000e+00 0.000000e+00 0.000000e+00  0.000000e+00 0.000000e+00 0.000000e+00  0.000000e+00 0.000000e+00 0.000000e+00  0.000000e+00 0.000000e+00 0.000000e+00  0.000000e+00 0.000000e+00 0.000000e+00  0.000000e+00 0.000000e+00 0.000000e+00  0.000000e+00 0.000000e+00 0.000000e+00  0.000000e+00 0.000000e+00 0.000000e+00  0.000000e+00 0.000000e+00 0.000000e+00  0.000000e+00 0.000000e+00 0.000000e+00  0.000000e+00 0.000000e+00 0.000000e+00  0.000000e+00 0.000000e+00 0.000000e+00  0.000000e+00 0.000000e+00 0.000000e+00  0.000000e+00 0.000000e+00 0.000000e+00  0.000000e+00 0.000000e+00 0.000000e+00  0.000000e+00 0.000000e+00 0.000000e+00  0.000000e+00 0.000000e+00 0.000000e+00  0.000000e+00 0.000000e+00 0.000000e+00  0.000000e+00 0.000000e+00 0.000000e+00  0.000000e+00 0.000000e+00 0.000000e+00  0.000000e+00 0.000000e+00 0.000000e+00  0.000000e+00 0.000000e+00 0.000000e+00  0.000000e+00 0.000000e+00 0.000000e+00  0.000000e+00 0.000000e+00 0.000000e+00  0.000000e+00 0.000000e+00 0.000000e+00  0.000000e+00 0.000000e+00 0.000000e+00  0.000000e+00 0.000000e+00 0.000000e+00  0.000000e+00 0.000000e+00 0.000000e+00  0.000000e+00 0.000000e+00 0.000000e+00  0.000000e+00 0.000000e+00 0.000000e+00  0.000000e+00 0.000000e+00 0.000000e+00  0.000000e+00 0.000000e+00 0.000000e+00  0.000000e+00 0.000000e+00 0.000000e+00  0.000000e+00 0.000000e+00 0.000000e+00  0.000000e+00 0.000000e+00 0.000000e+00  0.000000e+00 0.000000e+00 0.000000e+00  0.000000e+00 0.000000e+00 0.000000e+00  0.000000e+00 0.000000e+00 0.000000e+00  0.000000e+00 0.000000e+00 0.000000e+00  0.000000e+00 0.000000e+00 0.000000e+00  0.000000e+00 0.000000e+00 0.000000e+00  0.000000e+00 0.000000e+00 0.000000e+00  0.000000e+00 0.000000e+00 0.000000e+00  0.000000e+00 0.000000e+00 0.000000e+00  0.000000e+00 0.000000e+00 0.000000e+00  0.000000e+00 0.000000e+00 0.000000e+00  0.000000e+00 0.000000e+00 0.000000e+00  0.000000e+00 0.000000e+00 0.000000e+00  0.000000e+00 0.000000e+00 0.000000e+00  0.000000e+00 0.000000e+00 0.000000e+00  0.000000e+00 0.000000e+00 0.000000e+00  0.000000e+00 0.000000e+00 0.000000e+00  0.000000e+00 0.000000e+00 0.000000e+00  0.000000e+00 0.000000e+00 0.000000e+00  0.000000e+00 0.000000e+00 0.000000e+00  0.000000e+00 0.000000e+00 0.000000e+00  0.000000e+00 0.000000e+00 0.000000e+00  0.000000e+00 0.000000e+00 0.000000e+00  0.000000e+00 0.000000e+00 0.000000e+00  0.000000e+00 0.000000e+00 0.000000e+00  0.000000e+00 0.000000e+00 0.000000e+00  0.000000e+00 0.000000e+00 0.000000e+00  0.000000e+00 0.000000e+00 0.000000e+00  0.000000e+00 0.000000e+00 0.000000e+00  0.000000e+00 0.000000e+00 0.000000e+00  0.000000e+00 0.000000e+00 0.000000e+00  0.000000e+00 0.000000e+00 0.000000e+00  0.000000e+00 0.000000e+00 0.000000e+00  0.000000e+00 0.000000e+00 0.000000e+00  0.000000e+00 0.000000e+00 0.000000e+00  0.000000e+00 0.000000e+00 0.000000e+00  0.000000e+00 0.000000e+00 0.000000e+00  0.000000e+00 0.000000e+00 0.000000e+00  0.000000e+00 0.000000e+00 0.000000e+00  0.000000e+00 0.000000e+00 0.000000e+00  0.000000e+00 0.000000e+00 0.000000e+00  0.000000e+00 0.000000e+00 0.000000e+00  0.000000e+00 0.000000e+00 0.000000e+00  0.000000e+00 0.000000e+00 0.000000e+00  0.000000e+00 0.000000e+00 0.000000e+00  0.000000e+00 0.000000e+00 0.000000e+00  0.000000e+00 0.000000e+00 0.000000e+00  0.000000e+00 0.000000e+00 0.000000e+00  0.000000e+00 0.000000e+00 0.000000e+00  5.197642e-06 -5.197649e-06 0.000000e+00  1.858791e-05 -9.093871e-06 0.000000e+00  3.597048e-05 -1.004108e-05 0.000000e+00  5.277532e-05 -8.851794e-06 0.000000e+00  6.579438e-05 -6.215774e-06 0.000000e+00  7.277942e-05 -2.632011e-06 0.000000e+00  7.224569e-05 1.554407e-06 0.000000e+00  6.324612e-05 6.106224e-06 0.000000e+00  4.521579e-05 1.085661e-05 0.000000e+00  1.786572e-05 1.568616e-05 0.000000e+00  -1.889157e-05 2.050802e-05 0.000000e+00  -6.499437e-05 2.525805e-05 0.000000e+00  -1.202654e-04 2.988808e-05 0.000000e+00  -1.844584e-04 3.436297e-05 0.000000e+00  -2.572449e-04 3.865486e-05 0.000000e+00  -3.382432e-04 4.274260e-05 0.000000e+00  -4.270541e-04 4.661117e-05 0.000000e+00  -5.232542e-04 5.024942e-05 0.000000e+00  -6.263754e-04 5.364829e-05 0.000000e+00  -7.359302e-04 5.680132e-05 0.000000e+00  -8.514479e-04 5.970490e-05 0.000000e+00  -9.724534e-04 6.235690e-05 0.000000e+00  -1.098437e-03 6.475587e-05 0.000000e+00  -1.228885e-03 6.690156e-05 0.000000e+00  -1.363316e-03 6.879528e-05 0.000000e+00  -1.501255e-03 7.043903e-05 0.000000e+00  -1.642194e-03 7.183504e-05 0.000000e+00  -1.785629e-03 7.298625e-05 0.000000e+00  -1.931099e-03 7.389647e-05 0.000000e+00  -2.078152e-03 7.456984e-05 0.000000e+00  -2.226306e-03 7.501070e-05 0.000000e+00  -2.375087e-03 7.522387e-05 0.000000e+00  -2.524069e-03 7.521454e-05 0.000000e+00  -2.672836e-03 7.498811e-05 0.000000e+00  -2.820947e-03 7.455023e-05 0.000000e+00  -2.967969e-03 7.390690e-05 0.000000e+00  -3.113521e-03 7.306415e-05 0.000000e+00  -3.257233e-03 7.202810e-05 0.000000e+00  -3.398710e-03 7.080529e-05 0.000000e+00  -3.537571e-03 6.940245e-05 0.000000e+00  -3.673484e-03 6.782612e-05 0.000000e+00  -3.806128e-03 6.608286e-05 0.000000e+00  -3.935164e-03 6.417974e-05 0.000000e+00  -4.060264e-03 6.212399e-05 0.000000e+00  -4.181150e-03 5.992241e-05 0.000000e+00  -4.297554e-03 5.758179e-05 0.000000e+00  -4.409193e-03 5.510955e-05 0.000000e+00  -4.515799e-03 5.251322e-05 0.000000e+00  -4.617147e-03 4.979970e-05 0.000000e+00  -4.713024e-03 4.697589e-05 0.000000e+00  -4.803206e-03 4.404940e-05 0.000000e+00  -4.887486e-03 4.102793e-05 0.000000e+00  -4.965695e-03 3.791841e-05 0.000000e+00  -5.037672e-03 3.472776e-05 0.000000e+00  -5.103256e-03 3.146369e-05 0.000000e+00  -5.162300e-03 2.813398e-05 0.000000e+00  -5.214689e-03 2.474556e-05 0.000000e+00  -5.260320e-03 2.130531e-05 0.000000e+00  -5.299091e-03 1.782101e-05 0.000000e+00  -5.330918e-03 1.430046e-05 0.000000e+00  -5.355741e-03 1.075056e-05 0.000000e+00  -5.373511e-03 7.178189e-06 0.000000e+00  -5.384187e-03 3.591135e-06 0.000000e+00  -5.387748e-03 -2.792239e-09 0.000000e+00  -5.384189e-03 -3.596711e-06 0.000000e+00  -5.373514e-03 -7.183747e-06 0.000000e+00  -5.355746e-03 -1.075610e-05 0.000000e+00  -5.330925e-03 -1.430597e-05 0.000000e+00  -5.299100e-03 -1.782647e-05 0.000000e+00  -5.260331e-03 -2.131071e-05 0.000000e+00  -5.214701e-03 -2.475090e-05 0.000000e+00  -5.162313e-03 -2.813925e-05 0.000000e+00  -5.103271e-03 -3.146887e-05 0.000000e+00  -5.037689e-03 -3.473284e-05 0.000000e+00  -4.965713e-03 -3.792340e-05 0.000000e+00  -4.887507e-03 -4.103280e-05 0.000000e+00  -4.803228e-03 -4.405415e-05 0.000000e+00  -4.713047e-03 -4.698051e-05 0.000000e+00  -4.617172e-03 -4.980418e-05 0.000000e+00  -4.515825e-03 -5.251755e-05 0.000000e+00  -4.409220e-03 -5.511373e-05 0.000000e+00  -4.297583e-03 -5.758580e-05 0.000000e+00  -4.181180e-03 -5.992625e-05 0.000000e+00  -4.060295e-03 -6.212765e-05 0.000000e+00  -3.935195e-03 -6.418320e-05 0.000000e+00  -3.806161e-03 -6.608612e-05 0.000000e+00  -3.673517e-03 -6.782918e-05 0.000000e+00  -3.537604e-03 -6.940529e-05 0.000000e+00  -3.398743e-03 -7.080790e-05 0.000000e+00  -3.257266e-03 -7.203047e-05 0.000000e+00  -3.113554e-03 -7.306625e-05 0.000000e+00  -2.968001e-03 -7.390873e-05 0.000000e+00  -2.820979e-03 -7.455176e-05 0.000000e+00  -2.672867e-03 -7.498932e-05 0.000000e+00  -2.524098e-03 -7.521540e-05 0.000000e+00  -2.375115e-03 -7.522434e-05 0.000000e+00  -2.226333e-03 -7.501076e-05 0.000000e+00  -2.078177e-03 -7.456943e-05 0.000000e+00  -1.931122e-03 -7.389556e-05 0.000000e+00  -1.785650e-03 -7.298479e-05 0.000000e+00  -1.642213e-03 -7.183297e-05 0.000000e+00  -1.501271e-03 -7.043630e-05 0.000000e+00  -1.363330e-03 -6.879183e-05 0.000000e+00  -1.228897e-03 -6.689731e-05 0.000000e+00  -1.098447e-03 -6.475076e-05 0.000000e+00  -9.724610e-04 -6.235086e-05 0.000000e+00  -8.514535e-04 -5.969784e-05 0.000000e+00  -7.359338e-04 -5.679318e-05 0.000000e+00  -6.263771e-04 -5.363898e-05 0.000000e+00  -5.232543e-04 -5.023885e-05 0.000000e+00  -4.270527e-04 -4.659925e-05 0.000000e+00  -3.382405e-04 -4.272922e-05 0.000000e+00  -2.572411e-04 -3.863995e-05 0.000000e+00  -1.844536e-04 -3.434644e-05 0.000000e+00  -1.202597e-04 -2.986983e-05 0.000000e+00  -6.498780e-05 -2.523801e-05 0.000000e+00  -1.888686e-05 -2.048649e-05 0.000000e+00  1.787396e-05 -1.566258e-05 0.000000e+00  4.522650e-05 -1.083117e-05 0.000000e+00  6.325660e-05 -6.080052e-06 0.000000e+00  7.225738e-05 -1.528508e-06 0.000000e+00  7.279301e-05 2.656154e-06 0.000000e+00  6.580914e-05 6.233884e-06 0.000000e+00  5.279144e-05 8.856629e-06 0.000000e+00  3.597067e-05 1.001554e-05 0.000000e+00  1.864000e-05 9.011069e-06 0.000000e+00  5.096247e-06 5.096639e-06 0.000000e+00  0.000000e+00 0.000000e+00 0.000000e+00  0.000000e+00 0.000000e+00 0.000000e+00  9.099375e-06 -1.859126e-05 0.000000e+00  2.942988e-05 -2.941470e-05 0.000000e+00  5.338246e-05 -3.149461e-05 0.000000e+00  7.477558e-05 -2.661480e-05 0.000000e+00  8.878171e-05 -1.672549e-05 0.000000e+00  9.175824e-05 -3.390381e-06 0.000000e+00  8.112341e-05 1.223514e-05 0.000000e+00  5.511954e-05 2.930953e-05 0.000000e+00  1.262767e-05 4.721781e-05 0.000000e+00  -4.698411e-05 6.550659e-05 0.000000e+00  -1.239759e-04 8.383801e-05 0.000000e+00  -2.183227e-04 1.019578e-04 0.000000e+00  -3.297724e-04 1.196717e-04 0.000000e+00  -4.579333e-04 1.368358e-04 0.000000e+00  -6.022457e-04 1.533344e-04 0.000000e+00  -7.620386e-04 1.690787e-04 0.000000e+00  -9.366002e-04 1.840045e-04 0.000000e+00  -1.125164e-03 1.980627e-04 0.000000e+00  -1.326871e-03 2.112136e-04 0.000000e+00  -1.540817e-03 2.234279e-04 0.000000e+00  -1.766126e-03 2.346879e-04 0.000000e+00  -2.001909e-03 2.449822e-04 0.000000e+00  -2.247206e-03 2.543024e-04 0.000000e+00  -2.501043e-03 2.626452e-04 0.000000e+00  -2.762511e-03 2.700135e-04 0.000000e+00  -3.030704e-03 2.764133e-04 0.000000e+00  -3.304654e-03 2.818516e-04 0.000000e+00  -3.583395e-03 2.863387e-04 0.000000e+00  -3.866047e-03 2.898881e-04 0.000000e+00  -4.151739e-03 2.925148e-04 0.000000e+00  -4.439546e-03 2.942350e-04 0.000000e+00  -4.728555e-03 2.950665e-04 0.000000e+00  -5.017945e-03 2.950290e-04 0.000000e+00  -5.306915e-03 2.941429e-04 0.000000e+00  -5.594609e-03 2.924298e-04 0.000000e+00  -5.880192e-03 2.899125e-04 0.000000e+00  -6.162927e-03 2.866144e-04 0.000000e+00  -6.442096e-03 2.825589e-04 0.000000e+00  -6.716933e-03 2.777713e-04 0.000000e+00  -6.986699e-03 2.722777e-04 0.000000e+00  -7.250749e-03 2.661035e-04 0.000000e+00  -7.508463e-03 2.592741e-04 0.000000e+00  -7.759176e-03 2.518171e-04 0.000000e+00  -8.002255e-03 2.437607e-04 0.000000e+00  -8.237158e-03 2.351314e-04 0.000000e+00  -8.463362e-03 2.259557e-04 0.000000e+00  -8.680317e-03 2.162626e-04 0.000000e+00  -8.887501e-03 2.060816e-04 0.000000e+00  -9.084476e-03 1.954398e-04 0.000000e+00  -9.270826e-03 1.843642e-04 0.000000e+00  -9.446114e-03 1.728846e-04 0.000000e+00  -9.609937e-03 1.610313e-04 0.000000e+00  -9.761963e-03 1.488314e-04 0.000000e+00  -9.901882e-03 1.363122e-04 0.000000e+00  -1.002938e-02 1.235040e-04 0.000000e+00  -1.014416e-02 1.104374e-04 0.000000e+00  -1.024601e-02 9.713952e-05 0.000000e+00  -1.033472e-02 8.363757e-05 0.000000e+00  -1.041010e-02 6.996214e-05 0.000000e+00  -1.047198e-02 5.614391e-05 0.000000e+00  -1.052024e-02 4.221006e-05 0.000000e+00  -1.055479e-02 2.818768e-05 0.000000e+00  -1.057555e-02 1.410747e-05 0.000000e+00  -1.058247e-02 1.560782e-10 0.000000e+00  -1.057555e-02 -1.410716e-05 0.000000e+00  -1.055480e-02 -2.818736e-05 0.000000e+00  -1.052025e-02 -4.220974e-05 0.000000e+00  -1.047199e-02 -5.614359e-05 0.000000e+00  -1.041012e-02 -6.996180e-05 0.000000e+00  -1.033474e-02 -8.363723e-05 0.000000e+00  -1.024603e-02 -9.713917e-05 0.000000e+00  -1.014419e-02 -1.104370e-04 0.000000e+00  -1.002941e-02 -1.235037e-04 0.000000e+00  -9.901915e-03 -1.363119e-04 0.000000e+00  -9.761999e-03 -1.488311e-04 0.000000e+00  -9.609976e-03 -1.610309e-04 0.000000e+00  -9.446156e-03 -1.728843e-04 0.000000e+00  -9.270871e-03 -1.843639e-04 0.000000e+00  -9.084523e-03 -1.954395e-04 0.000000e+00  -8.887551e-03 -2.060814e-04 0.000000e+00  -8.680369e-03 -2.162624e-04 0.000000e+00  -8.463417e-03 -2.259555e-04 0.000000e+00  -8.237214e-03 -2.351313e-04 0.000000e+00  -8.002314e-03 -2.437608e-04 0.000000e+00  -7.759236e-03 -2.518173e-04 0.000000e+00  -7.508524e-03 -2.592745e-04 0.000000e+00  -7.250811e-03 -2.661040e-04 0.000000e+00  -6.986761e-03 -2.722785e-04 0.000000e+00  -6.716995e-03 -2.777723e-04 0.000000e+00  -6.442158e-03 -2.825601e-04 0.000000e+00  -6.162989e-03 -2.866158e-04 0.000000e+00  -5.880253e-03 -2.899142e-04 0.000000e+00  -5.594668e-03 -2.924317e-04 0.000000e+00  -5.306972e-03 -2.941451e-04 0.000000e+00  -5.018000e-03 -2.950314e-04 0.000000e+00  -4.728607e-03 -2.950690e-04 0.000000e+00  -4.439595e-03 -2.942376e-04 0.000000e+00  -4.151785e-03 -2.925175e-04 0.000000e+00  -3.866089e-03 -2.898907e-04 0.000000e+00  -3.583433e-03 -2.863413e-04 0.000000e+00  -3.304687e-03 -2.818541e-04 0.000000e+00  -3.030734e-03 -2.764155e-04 0.000000e+00  -2.762536e-03 -2.700153e-04 0.000000e+00  -2.501064e-03 -2.626466e-04 0.000000e+00  -2.247222e-03 -2.543034e-04 0.000000e+00  -2.001921e-03 -2.449826e-04 0.000000e+00  -1.766134e-03 -2.346876e-04 0.000000e+00  -1.540821e-03 -2.234268e-04 0.000000e+00  -1.326872e-03 -2.112118e-04 0.000000e+00  -1.125162e-03 -1.980600e-04 0.000000e+00  -9.365951e-04 -1.840009e-04 0.000000e+00  -7.620312e-04 -1.690744e-04 0.000000e+00  -6.022364e-04 -1.533292e-04 0.000000e+00  -4.579224e-04 -1.368297e-04 0.000000e+00  -3.297602e-04 -1.196650e-04 0.000000e+00  -2.183096e-04 -1.019505e-04 0.000000e+00  -1.239677e-04 -8.383169e-05 0.000000e+00  -4.697016e-05 -6.549921e-05 0.000000e+00  1.264490e-05 -4.720991e-05 0.000000e+00  5.513314e-05 -2.930419e-05 0.000000e+00  8.113495e-05 -1.223326e-05 0.000000e+00  9.176923e-05 3.389746e-06 0.000000e+00  8.878841e-05 1.672101e-05 0.000000e+00  7.478039e-05 2.660538e-05 0.000000e+00  5.337721e-05 3.149091e-05 0.000000e+00  2.944278e-05 2.942818e-05 0.000000e+00  9.015322e-06 1.864267e-05 0.000000e+00  0.000000e+00 0.000000e+00 0.000000e+00  0.000000e+00 0.000000e+00 0.000000e+00  1.007252e-05 -3.600570e-05 0.000000e+00  3.160259e-05 -5.340029e-05 0.000000e+00  5.469301e-05 -5.453566e-05 0.000000e+00  7.212424e-05 -4.274968e-05 0.000000e+00  7.824103e-05 -2.131265e-05 0.000000e+00  6.866318e-05 7.036868e-06 0.000000e+00  4.013225e-05 4.015241e-05 0.000000e+00  -9.674397e-06 7.639278e-05 0.000000e+00  -8.230903e-05 1.145126e-04 0.000000e+00  -1.787058e-04 1.535656e-04 0.000000e+00  -2.993060e-04 1.928290e-04 0.000000e+00  -4.441594e-04 2.317479e-04 0.000000e+00  -6.129937e-04 2.698910e-04 0.000000e+00  -8.053361e-04 3.069329e-04 0.000000e+00  -1.020463e-03 3.426099e-04 0.000000e+00  -1.257483e-03 3.767161e-04 0.000000e+00  -1.515441e-03 4.090998e-04 0.000000e+00  -1.793292e-03 4.396441e-04 0.000000e+00  -2.089849e-03 4.682525e-04 0.000000e+00  -2.403855e-03 4.948530e-04 0.000000e+00  -2.734085e-03 5.193995e-04 0.000000e+00  -3.079291e-03 5.418606e-04 0.000000e+00  -3.438115e-03 5.622121e-04 0.000000e+00  -3.809174e-03 5.804417e-04 0.000000e+00  -4.191176e-03 5.965517e-04 0.000000e+00  -4.582828e-03 6.105510e-04 0.000000e+00  -4.982744e-03 6.224519e-04 0.000000e+00  -5.389541e-03 6.322735e-04 0.000000e+00  -5.801950e-03 6.400430e-04 0.000000e+00  -6.218724e-03 6.457913e-04 0.000000e+00  -6.638524e-03 6.495514e-04 0.000000e+00  -7.060033e-03 6.513609e-04 0.000000e+00  -7.482066e-03 6.512616e-04 0.000000e+00  -7.903463e-03 6.492967e-04 0.000000e+00  -8.322983e-03 6.455125e-04 0.000000e+00  -8.739417e-03 6.399583e-04 0.000000e+00  -9.151693e-03 6.326843e-04 0.000000e+00  -9.558769e-03 6.237416e-04 0.000000e+00  -9.959532e-03 6.131849e-04 0.000000e+00  -1.035291e-02 6.010712e-04 0.000000e+00  -1.073796e-02 5.874557e-04 0.000000e+00  -1.111377e-02 5.723942e-04 0.000000e+00  -1.147939e-02 5.559468e-04 0.000000e+00  -1.183389e-02 5.381756e-04 0.000000e+00  -1.217647e-02 5.191386e-04 0.000000e+00  -1.250638e-02 4.988942e-04 0.000000e+00  -1.282281e-02 4.775060e-04 0.000000e+00  -1.312500e-02 4.550391e-04 0.000000e+00  -1.341231e-02 4.315531e-04 0.000000e+00  -1.368413e-02 4.071074e-04 0.000000e+00  -1.393982e-02 3.817680e-04 0.000000e+00  -1.417879e-02 3.556015e-04 0.000000e+00  -1.440057e-02 3.286681e-04 0.000000e+00  -1.460468e-02 3.010278e-04 0.000000e+00  -1.479068e-02 2.727478e-04 0.000000e+00  -1.495813e-02 2.438954e-04 0.000000e+00  -1.510672e-02 2.145311e-04 0.000000e+00  -1.523615e-02 1.847149e-04 0.000000e+00  -1.534613e-02 1.545145e-04 0.000000e+00  -1.543641e-02 1.239978e-04 0.000000e+00  -1.550682e-02 9.322495e-05 0.000000e+00  -1.555723e-02 6.225605e-05 0.000000e+00  -1.558751e-02 3.115904e-05 0.000000e+00  -1.559762e-02 1.975462e-09 0.000000e+00  -1.558752e-02 -3.115509e-05 0.000000e+00  -1.555724e-02 -6.225210e-05 0.000000e+00  -1.550684e-02 -9.322101e-05 0.000000e+00  -1.543643e-02 -1.239939e-04 0.000000e+00  -1.534615e-02 -1.545106e-04 0.000000e+00  -1.523618e-02 -1.847110e-04 0.000000e+00  -1.510676e-02 -2.145273e-04 0.000000e+00  -1.495817e-02 -2.438916e-04 0.000000e+00  -1.479072e-02 -2.727440e-04 0.000000e+00  -1.460473e-02 -3.010241e-04 0.000000e+00  -1.440062e-02 -3.286644e-04 0.000000e+00  -1.417885e-02 -3.555979e-04 0.000000e+00  -1.393988e-02 -3.817645e-04 0.000000e+00  -1.368419e-02 -4.071041e-04 0.000000e+00  -1.341238e-02 -4.315500e-04 0.000000e+00  -1.312507e-02 -4.550362e-04 0.000000e+00  -1.282289e-02 -4.775034e-04 0.000000e+00  -1.250646e-02 -4.988918e-04 0.000000e+00  -1.217656e-02 -5.191366e-04 0.000000e+00  -1.183398e-02 -5.381740e-04 0.000000e+00  -1.147948e-02 -5.559457e-04 0.000000e+00  -1.111386e-02 -5.723935e-04 0.000000e+00  -1.073805e-02 -5.874556e-04 0.000000e+00  -1.035300e-02 -6.010717e-04 0.000000e+00  -9.959624e-03 -6.131861e-04 0.000000e+00  -9.558860e-03 -6.237435e-04 0.000000e+00  -9.151783e-03 -6.326869e-04 0.000000e+00  -8.739506e-03 -6.399616e-04 0.000000e+00  -8.323070e-03 -6.455165e-04 0.000000e+00  -7.903547e-03 -6.493014e-04 0.000000e+00  -7.482147e-03 -6.512670e-04 0.000000e+00  -7.060110e-03 -6.513669e-04 0.000000e+00  -6.638596e-03 -6.495579e-04 0.000000e+00  -6.218791e-03 -6.457982e-04