<?xml version="1.0"?>
<VTKFile type="UnstructuredGrid"  version="0.1"  >
<UnstructuredGrid>
<Piece  NumberOfPoints="16641" NumberOfCells="32768">
<Points>
<DataArray  type="Float32"  NumberOfComponents="3"  format="ascii">0 0 0  0.0078125 0 0  0.015625 0 0  0.0234375 0 0  0.03125 0 0  0.0390625 0 0  0.046875 0 0  0.0546875 0 0  0.0625 0 0  0.0703125 0 0  0.078125 0 0  0.0859375 0 0  0.09375 0 0  0.101562 0 0  0.109375 0 0  0.117188 0 0  0.125 0 0  0.132812 0 0  0.140625 0 0  0.148438 0 0  0.15625 0 0  0.164062 0 0  0.171875 0 0  0.179688 0 0  0.1875 0 0  0.195312 0 0  0.203125 0 0  0.210938 0 0  0.21875 0 0  0.226562 0 0  0.234375 0 0  0.242188 0 0  0.25 0 0  0.257812 0 0  0.265625 0 0  0.273438 0 0  0.28125 0 0  0.289062 0 0  0.296875 0 0  0.304688 0 0  0.3125 0 0  0.320312 0 0  0.328125 0 0  0.335938 0 0  0.34375 0 0  0.351562 0 0  0.359375 0 0  0.367188 0 0  0.375 0 0  0.382812 0 0  0.390625 0 0  0.398438 0 0  0.40625 0 0  0.414062 0 0  0.421875 0 0  0.429688 0 0  0.4375 0 0  0.445312 0 0  0.453125 0 0  0.460938 0 0  0.46875 0 0  0.476562 0 0  0.484375 0 0  0.492188 0 0  0.5 0 0  0.507812 0 0  0.515625 0 0  0.523438 0 0  0.53125 0 0  0.539062 0 0  0.546875 0 0  0.554688 0 0  0.5625 0 0  0.570312 0 0  0.578125 0 0  0.585938 0 0  0.59375 0 0  0.601562 0 0  0.609375 0 0  0.617188 0 0  0.625 0 0  0.632812 0 0  0.640625 0 0  0.648438 0 0  0.65625 0 0  0.664062 0 0  0.671875 0 0  0.679688 0 0  0.6875 0 0  0.695312 0 0  0.703125 0 0  0.710938 0 0  0.71875 0 0  0.726562 0 0  0.734375 0 0  0.742188 0 0  0.75 0 0  0.757812 0 0  0.765625 0 0  0.773438 0 0  0.78125 0 0  0.789062 0 0  0.796875 0 0  0.804688 0 0  0.8125 0 0  0.820312 0 0  0.828125 0 0  0.835938 0 0  0.84375 0 0  0.851562 0 0  0.859375 0 0  0.867188 0 0  0.875 0 0  0.882812 0 0  0.890625 0 0  0.898438 0 0  0.90625 0 0  0.914062 0 0  0.921875 0 0  0.929688 0 0  0.9375 0 0  0.945312 0 0  0.953125 0 0  0.960938 0 0  0.96875 0 0  0.976562 0 0  0.984375 0 0  0.992188 0 0  1 0 0  0 0.0078125 0  0.0078125 0.0078125 0  0.015625 0.0078125 0  0.0234375 0.0078125 0  0.03125 0.0078125 0  0.0390625 0.0078125 0  0.046875 0.0078125 0  0.0546875 0.0078125 0  0.0625 0.0078125 0  0.0703125 0.0078125 0  0.078125 0.0078125 0  0.0859375 0.0078125 0  0.09375 0.0078125 0  0.101562 0.0078125 0  0.109375 0.0078125 0  0.117188 0.0078125 0  0.125 0.0078125 0  0.132812 0.0078125 0  0.140625 0.0078125 0  0.148438 0.0078125 0  0.15625 0.0078125 0  0.164062 0.0078125 0  0.171875 0.0078125 0  0.179688 0.0078125 0  0.1875 0.0078125 0  0.195312 0.0078125 0  0.203125 0.0078125 0  0.210938 0.0078125 0  0.21875 0.0078125 0  0.226562 0.0078125 0  0.234375 0.0078125 0  0.242188 0.0078125 0  0.25 0.0078125 0  0.257812 0.0078125 0  0.265625 0.0078125 0  0.273438 0.0078125 0  0.28125 0.0078125 0  0.289062 0.0078125 0  0.296875 0.0078125 0  0.304688 0.0078125 0  0.3125 0.0078125 0  0.320312 0.0078125 0  0.328125 0.0078125 0  0.335938 0.0078125 0  0.34375 0.0078125 0  0.351562 0.0078125 0  0.359375 0.0078125 0  0.367188 0.0078125 0  0.375 0.0078125 0  0.382812 0.0078125 0  0.390625 0.0078125 0  0.398438 0.0078125 0  0.40625 0.0078125 0  0.414062 0.0078125 0  0.421875 0.0078125 0  0.429688 0.0078125 0  0.4375 0.0078125 0  0.445312 0.0078125 0  0.453125 0.0078125 0  0.460938 0.0078125 0  0.46875 0.0078125 0  0.476562 0.0078125 0  0.484375 0.0078125 0  0.492188 0.0078125 0  0.5 0.0078125 0  0.507812 0.0078125 0  0.515625 0.0078125 0  0.523438 0.0078125 0  0.53125 0.0078125 0  0.539062 0.0078125 0  0.546875 0.0078125 0  0.554688 0.0078125 0  0.5625 0.0078125 0  0.570312 0.0078125 0  0.578125 0.0078125 0  0.585938 0.0078125 0  0.59375 0.0078125 0  0.601562 0.0078125 0  0.609375 0.0078125 0  0.617188 0.0078125 0  0.625 0.0078125 0  0.632812 0.0078125 0  0.640625 0.0078125 0  0.648438 0.0078125 0  0.65625 0.0078125 0  0.664062 0.0078125 0  0.671875 0.0078125 0  0.679688 0.0078125 0  0.6875 0.0078125 0  0.695312 0.0078125 0  0.703125 0.0078125 0  0.710938 0.0078125 0  0.71875 0.0078125 0  0.726562 0.0078125 0  0.734375 0.0078125 0  0.742188 0.0078125 0  0.75 0.0078125 0  0.757812 0.0078125 0  0.765625 0.0078125 0  0.773438 0.0078125 0  0.78125 0.0078125 0  0.789062 0.0078125 0  0.796875 0.0078125 0  0.804688 0.0078125 0  0.8125 0.0078125 0  0.820312 0.0078125 0  0.828125 0.0078125 0  0.835938 0.0078125 0  0.84375 0.0078125 0  0.851562 0.0078125 0  0.859375 0.0078125 0  0.867188 0.0078125 0  0.875 0.0078125 0  0.882812 0.0078125 0  0.890625 0.0078125 0  0.898438 0.0078125 0  0.90625 0.0078125 0  0.914062 0.0078125 0  0.921875 0.0078125 0  0.929688 0.0078125 0  0.9375 0.0078125 0  0.945312 0.0078125 0  0.953125 0.0078125 0  0.960938 0.0078125 0  0.96875 0.0078125 0  0.976562 0.0078125 0  0.984375 0.0078125 0  0.992188 0.0078125 0  1 0.0078125 0  0 0.015625 0  0.0078125 0.015625 0  0.015625 0.015625 0  0.0234375 0.015625 0  0.03125 0.015625 0  0.0390625 0.015625 0  0.046875 0.015625 0  0.0546875 0.015625 0  0.0625 0.015625 0  0.0703125 0.015625 0  0.078125 0.015625 0  0.0859375 0.015625 0  0.09375 0.015625 0  0.101562 0.015625 0  0.109375 0.015625 0  0.117188 0.015625 0  0.125 0.015625 0  0.132812 0.015625 0  0.140625 0.015625 0  0.148438 0.015625 0  0.15625 0.015625 0  0.164062 0.015625 0  0.171875 0.015625 0  0.179688 0.015625 0  0.1875 0.015625 0  0.195312 0.015625 0  0.203125 0.015625 0  0.210938 0.015625 0  0.21875 0.015625 0  0.226562 0.015625 0  0.234375 0.015625 0  0.242188 0.015625 0  0.25 0.015625 0  0.257812 0.015625 0  0.265625 0.015625 0  0.273438 0.015625 0  0.28125 0.015625 0  0.289062 0.015625 0  0.296875 0.015625 0  0.304688 0.015625 0  0.3125 0.015625 0  0.320312 0.015625 0  0.328125 0.015625 0  0.335938 0.015625 0  0.34375 0.015625 0  0.351562 0.015625 0  0.359375 0.015625 0  0.367188 0.015625 0  0.375 0.015625 0  0.382812 0.015625 0  0.390625 0.015625 0  0.398438 0.015625 0  0.40625 0.015625 0  0.414062 0.015625 0  0.421875 0.015625 0  0.429688 0.015625 0  0.4375 0.015625 0  0.445312 0.015625 0  0.453125 0.015625 0  0.460938 0.015625 0  0.46875 0.015625 0  0.476562 0.015625 0  0.484375 0.015625 0  0.492188 0.015625 0  0.5 0.015625 0  0.507812 0.015625 0  0.515625 0.015625 0  0.523438 0.015625 0  0.53125 0.015625 0  0.539062 0.015625 0  0.546875 0.015625 0  0.554688 0.015625 0  0.5625 0.015625 0  0.570312 0.015625 0  0.578125 0.015625 0  0.585938 0.015625 0  0.59375 0.015625 0  0.601562 0.015625 0  0.609375 0.015625 0  0.617188 0.015625 0  0.625 0.015625 0  0.632812 0.015625 0  0.640625 0.015625 0  0.648438 0.015625 0  0.65625 0.015625 0  0.664062 0.015625 0  0.671875 0.015625 0  0.679688 0.015625 0  0.6875 0.015625 0  0.695312 0.015625 0  0.703125 0.015625 0  0.710938 0.015625 0  0.71875 0.015625 0  0.726562 0.015625 0  0.734375 0.015625 0  0.742188 0.015625 0  0.75 0.015625 0  0.757812 0.015625 0  0.765625 0.015625 0  0.773438 0.015625 0  0.78125 0.015625 0  0.789062 0.015625 0  0.796875 0.015625 0  0.804688 0.015625 0  0.8125 0.015625 0  0.820312 0.015625 0  0.828125 0.015625 0  0.835938 0.015625 0  0.84375 0.015625 0  0.851562 0.015625 0  0.859375 0.015625 0  0.867188 0.015625 0  0.875 0.015625 0  0.882812 0.015625 0  0.890625 0.015625 0  0.898438 0.015625 0  0.90625 0.015625 0  0.914062 0.015625 0  0.921875 0.015625 0  0.929688 0.015625 0  0.9375 0.015625 0  0.945312 0.015625 0  0.953125 0.015625 0  0.960938 0.015625 0  0.96875 0.015625 0  0.976562 0.015625 0  0.984375 0.015625 0  0.992188 0.015625 0  1 0.015625 0  0 0.0234375 0  0.0078125 0.0234375 0  0.015625 0.0234375 0  0.0234375 0.0234375 0  0.03125 0.0234375 0  0.0390625 0.0234375 0  0.046875 0.0234375 0  0.0546875 0.0234375 0  0.0625 0.0234375 0  0.0703125 0.0234375 0  0.078125 0.0234375 0  0.0859375 0.0234375 0  0.09375 0.0234375 0  0.101562 0.0234375 0  0.109375 0.0234375 0  0.117188 0.0234375 0  0.125 0.0234375 0  0.132812 0.0234375 0  0.140625 0.0234375 0  0.148438 0.0234375 0  0.15625 0.0234375 0  0.164062 0.0234375 0  0.171875 0.0234375 0  0.179688 0.0234375 0  0.1875 0.0234375 0  0.195312 0.0234375 0  0.203125 0.0234375 0  0.210938 0.0234375 0  0.21875 0.0234375 0  0.226562 0.0234375 0  0.234375 0.0234375 0  0.242188 0.0234375 0  0.25 0.0234375 0  0.257812 0.0234375 0  0.265625 0.0234375 0  0.273438 0.0234375 0  0.28125 0.0234375 0  0.289062 0.0234375 0  0.296875 0.0234375 0  0.304688 0.0234375 0  0.3125 0.0234375 0  0.320312 0.0234375 0  0.328125 0.0234375 0  0.335938 0.0234375 0  0.34375 0.0234375 0  0.351562 0.0234375 0  0.359375 0.0234375 0  0.367188 0.0234375 0  0.375 0.0234375 0  0.382812 0.0234375 0  0.390625 0.0234375 0  0.398438 0.0234375 0  0.40625 0.0234375 0  0.414062 0.0234375 0  0.421875 0.0234375 0  0.429688 0.0234375 0  0.4375 0.0234375 0  0.445312 0.0234375 0  0.453125 0.0234375 0  0.460938 0.0234375 0  0.46875 0.0234375 0  0.476562 0.0234375 0  0.484375 0.0234375 0  0.492188 0.0234375 0  0.5 0.0234375 0  0.507812 0.0234375 0  0.515625 0.0234375 0  0.523438 0.0234375 0  0.53125 0.0234375 0  0.539062 0.0234375 0  0.546875 0.0234375 0  0.554688 0.0234375 0  0.5625 0.0234375 0  0.570312 0.0234375 0  0.578125 0.0234375 0  0.585938 0.0234375 0  0.59375 0.0234375 0  0.601562 0.0234375 0  0.609375 0.0234375 0  0.617188 0.0234375 0  0.625 0.0234375 0  0.632812 0.0234375 0  0.640625 0.0234375 0  0.648438 0.0234375 0  0.65625 0.0234375 0  0.664062 0.0234375 0  0.671875 0.0234375 0  0.679688 0.0234375 0  0.6875 0.0234375 0  0.695312 0.0234375 0  0.703125 0.0234375 0  0.710938 0.0234375 0  0.71875 0.0234375 0  0.726562 0.0234375 0  0.734375 0.0234375 0  0.742188 0.0234375 0  0.75 0.0234375 0  0.757812 0.0234375 0  0.765625 0.0234375 0  0.773438 0.0234375 0  0.78125 0.0234375 0  0.789062 0.0234375 0  0.796875 0.0234375 0  0.804688 0.0234375 0  0.8125 0.0234375 0  0.820312 0.0234375 0  0.828125 0.0234375 0  0.835938 0.0234375 0  0.84375 0.0234375 0  0.851562 0.0234375 0  0.859375 0.0234375 0  0.867188 0.0234375 0  0.875 0.0234375 0  0.882812 0.0234375 0  0.890625 0.0234375 0  0.898438 0.0234375 0  0.90625 0.0234375 0  0.914062 0.0234375 0  0.921875 0.0234375 0  0.929688 0.0234375 0  0.9375 0.0234375 0  0.945312 0.0234
[...]
<PointData  Vectors="u"> 
<DataArray  type="Float32"  Name="u"  NumberOfComponents="3" format="ascii">0.000000e+00 0.000000e+00 0.000000e+00  0.000000e+00 0.000000e+00 0.000000e+00  0.000000e+00 0.000000e+00 0.000000e+00  0.000000e+00 0.000000e+00 0.000000e+00  0.000000e+00 0.000000e+00 0.000000e+00  0.000000e+00 0.000000e+00 0.000000e+00  0.000000e+00 0.000000e+00 0.000000e+00  0.000000e+00 0.000000e+00 0.000000e+00  0.000000e+00 0.000000e+00 0.000000e+00  0.000000e+00 0.000000e+00 0.000000e+00  0.000000e+00 0.000000e+00 0.000000e+00  0.000000e+00 0.000000e+00 0.000000e+00  0.000000e+00 0.000000e+00 0.000000e+00  0.000000e+00 0.000000e+00 0.000000e+00  0.000000e+00 0.000000e+00 0.000000e+00  0.000000e+00 0.000000e+00 0.000000e+00  0.000000e+00 0.000000e+00 0.000000e+00  0.000000e+00 0.000000e+00 0.000000e+00  0.000000e+00 0.000000e+00 0.000000e+00  0.000000e+00 0.000000e+00 0.000000e+00  0.000000e+00 0.000000e+00 0.000000e+00  0.000000e+00 0.000000e+00 0.000000e+00  0.000000e+00 0.000000e+00 0.000000e+00  0.000000e+00 0.000000e+00 0.000000e+00  0.000000e+00 0.000000e+00 0.000000e+00  0.000000e+00 0.000000e+00 0.000000e+00  0.000000e+00 0.000000e+00 0.000000e+00  0.000000e+00 0.000000e+00 0.000000e+00  0.000000e+00 0.000000e+00 0.000000e+00  0.000000e+00 0.000000e+00 0.000000e+00  0.000000e+00 0.000000e+00 0.000000e+00  0.000000e+00 0.000000e+00 0.000000e+00  0.000000e+00 0.000000e+00 0.000000e+00  0.000000e+00 0.000000e+00 0.000000e+00  0.000000e+00 0.000000e+00 0.000000e+00  0.000000e+00 0.000000e+00 0.000000e+00  0.000000e+00 0.000000e+00 0.000000e+00  0.000000e+00 0.000000e+00 0.000000e+00  0.000000e+00 0.000000e+00 0.000000e+00  0.000000e+00 0.000000e+00 0.000000e+00  0.000000e+00 0.000000e+00 0.000000e+00  0.000000e+00 0.000000e+00 0.000000e+00  0.000000e+00 0.000000e+00 0.000000e+00  0.000000e+00 0.000000e+00 0.000000e+00  0.000000e+00 0.000000e+00 0.000000e+00  0.000000e+00 0.000000e+00 0.000000e+00  0.000000e+00 0.000000e+00 0.000000e+00  0.000000e+00 0.000000e+00 0.000000e+00  0.000000e+00 0.000000e+00 0.000000e+00  0.000000e+00 0.000000e+00 0.000000e+00  0.000000e+00 0.000000e+00 0.000000e+00  0.000000e+00 0.000000e+00 0.000000e+00  0.000000e+00 0.000000e+00 0.000000e+00  0.000000e+00 0.000000e+00 0.000000e+00  0.000000e+00 0.000000e+00 0.000000e+00  0.000000e+00 0.000000e+00 0.000000e+00  0.000000e+00 0.000000e+00 0.000000e+00  0.000000e+00 0.000000e+00 0.000000e+00  0.000000e+00 0.000000e+00 0.000000e+00  0.000000e+00 0.000000e+00 0.000000e+00  0.000000e+00 0.000000e+00 0.000000e+00  0.000000e+00 0.000000e+00 0.000000e+00  0.000000e+00 0.000000e+00 0.000000e+00  0.000000e+00 0.000000e+00 0.000000e+00  0.000000e+00 0.000000e+00 0.000000e+00  0.000000e+00 0.000000e+00 0.000000e+00  0.000000e+00 0.000000e+00 0.000000e+00  0.000000e+00 0.000000e+00 0.000000e+00  0.000000e+00 0.000000e+00 0.000000e+00  0.000000e+00 0.000000e+00 0.000000e+00  0.000000e+00 0.000000e+00 0.000000e+00  0.000000e+00 0.000000e+00 0.000000e+00  0.000000e+00 0.000000e+00 0.000000e+00  0.000000e+00 0.000000e+00 0.000000e+00  0.000000e+00 0.000000e+00 0.000000e+00  0.000000e+00 0.000000e+00 0.000000e+00  0.000000e+00 0.000000e+00 0.000000e+00  0.000000e+00 0.000000e+00 0.000000e+00  0.000000e+00 0.000000e+00 0.000000e+00  0.000000e+00 0.000000e+00 0.000000e+00  0.000000e+00 0.000000e+00 0.000000e+00  0.000000e+00 0.000000e+00 0.000000e+00  0.000000e+00 0.000000e+00 0.000000e+00  0.000000e+00 0.000000e+00 0.000000e+00  0.000000e+00 0.000000e+00 0.000000e+00  0.000000e+00 0.000000e+00 0.000000e+00  0.000000e+00 0.000000e+00 0.000000e+00  0.000000e+00 0.000000e+00 0.000000e+00  0.000000e+00 0.000000e+00 0.000000e+00  0.000000e+00 0.000000e+00 0.000000e+00  0.000000e+00 0.000000e+00 0.000000e+00  0.000000e+00 0.000000e+00 0.000000e+00  0.000000e+00 0.000000e+00 0.000000e+00  0.000000e+00 0.000000e+00 0.000000e+00  0.000000e+00 0.000000e+00 0.000000e+00  0.000000e+00 0.000000e+00 0.000000e+00  0.000000e+00 0.000000e+00 0.000000e+00  0.000000e+00 0.000000e+00 0.000000e+00  0.000000e+00 0.000000e+00 0.000000e+00  0.000000e+00 0.000000e+00 0.000000e+00  0.000000e+00 0.000000e+00 0.000000e+00  0.000000e+00 0.000000e+00 0.000000e+00  0.000000e+00 0.000000e+00 0.000000e+00  0.000000e+00 0.000000e+00 0.000000e+00  0.000000e+00 0.000000e+00 0.000000e+00  0.000000e+00 0.000000e+00 0.000000e+00  0.000000e+00 0.000000e+00 0.000000e+00  0.000000e+00 0.000000e+00 0.000000e+00  0.000000e+00 0.000000e+00 0.000000e+00  0.000000e+00 0.000000e+00 0.000000e+00  0.000000e+00 0.000000e+00 0.000000e+00  0.000000e+00 0.000000e+00 0.000000e+00  0.000000e+00 0.000000e+00 0.000000e+00  0.000000e+00 0.000000e+00 0.000000e+00  0.000000e+00 0.000000e+00 0.000000e+00  0.000000e+00 0.000000e+00 0.000000e+00  0.000000e+00 0.000000e+00 0.000000e+00  0.000000e+00 0.000000e+00 0.000000e+00  0.000000e+00 0.000000e+00 0.000000e+00  0.000000e+00 0.000000e+00 0.000000e+00  0.000000e+00 0.000000e+00 0.000000e+00  0.000000e+00 0.000000e+00 0.000000e+00  0.000000e+00 0.000000e+00 0.000000e+00  0.000000e+00 0.000000e+00 0.000000e+00  0.000000e+00 0.000000e+00 0.000000e+00  0.000000e+00 0.000000e+00 0.000000e+00  0.000000e+00 0.000000e+00 0.000000e+00  0.000000e+00 0.000000e+00 0.000000e+00  0.000000e+00 0.000000e+00 0.000000e+00  0.000000e+00 0.000000e+00 0.000000e+00  5.197646e-06 -5.197654e-06 0.000000e+00  1.858795e-05 -9.093899e-06 0.000000e+00  3.597060e-05 -1.004114e-05 0.000000e+00  5.277557e-05 -8.851867e-06 0.000000e+00  6.579478e-05 -6.215862e-06 0.000000e+00  7.277999e-05 -2.632107e-06 0.000000e+00  7.224645e-05 1.554307e-06 0.000000e+00  6.324707e-05 6.106126e-06 0.000000e+00  4.521693e-05 1.085651e-05 0.000000e+00  1.786703e-05 1.568608e-05 0.000000e+00  -1.889012e-05 2.050795e-05 0.000000e+00  -6.499279e-05 2.525799e-05 0.000000e+00  -1.202638e-04 2.988804e-05 0.000000e+00  -1.844567e-04 3.436295e-05 0.000000e+00  -2.572432e-04 3.865486e-05 0.000000e+00  -3.382414e-04 4.274262e-05 0.000000e+00  -4.270524e-04 4.661121e-05 0.000000e+00  -5.232526e-04 5.024948e-05 0.000000e+00  -6.263739e-04 5.364837e-05 0.000000e+00  -7.359290e-04 5.680142e-05 0.000000e+00  -8.514469e-04 5.970500e-05 0.000000e+00  -9.724526e-04 6.235702e-05 0.000000e+00  -1.098436e-03 6.475600e-05 0.000000e+00  -1.228884e-03 6.690169e-05 0.000000e+00  -1.363316e-03 6.879542e-05 0.000000e+00  -1.501255e-03 7.043916e-05 0.000000e+00  -1.642194e-03 7.183516e-05 0.000000e+00  -1.785630e-03 7.298637e-05 0.000000e+00  -1.931100e-03 7.389657e-05 0.000000e+00  -2.078153e-03 7.456992e-05 0.000000e+00  -2.226307e-03 7.501077e-05 0.000000e+00  -2.375088e-03 7.522391e-05 0.000000e+00  -2.524070e-03 7.521456e-05 0.000000e+00  -2.672838e-03 7.498811e-05 0.000000e+00  -2.820948e-03 7.455021e-05 0.000000e+00  -2.967970e-03 7.390685e-05 0.000000e+00  -3.113522e-03 7.306408e-05 0.000000e+00  -3.257234e-03 7.202801e-05 0.000000e+00  -3.398711e-03 7.080518e-05 0.000000e+00  -3.537572e-03 6.940232e-05 0.000000e+00  -3.673484e-03 6.782597e-05 0.000000e+00  -3.806128e-03 6.608269e-05 0.000000e+00  -3.935163e-03 6.417955e-05 0.000000e+00  -4.060263e-03 6.212379e-05 0.000000e+00  -4.181149e-03 5.992221e-05 0.000000e+00  -4.297553e-03 5.758158e-05 0.000000e+00  -4.409191e-03 5.510933e-05 0.000000e+00  -4.515796e-03 5.251299e-05 0.000000e+00  -4.617144e-03 4.979947e-05 0.000000e+00  -4.713021e-03 4.697565e-05 0.000000e+00  -4.803203e-03 4.404917e-05 0.000000e+00  -4.887482e-03 4.102769e-05 0.000000e+00  -4.965690e-03 3.791818e-05 0.000000e+00  -5.037667e-03 3.472753e-05 0.000000e+00  -5.103250e-03 3.146346e-05 0.000000e+00  -5.162293e-03 2.813376e-05 0.000000e+00  -5.214683e-03 2.474534e-05 0.000000e+00  -5.260313e-03 2.130510e-05 0.000000e+00  -5.299084e-03 1.782080e-05 0.000000e+00  -5.330911e-03 1.430026e-05 0.000000e+00  -5.355733e-03 1.075037e-05 0.000000e+00  -5.373502e-03 7.178003e-06 0.000000e+00  -5.384178e-03 3.590956e-06 0.000000e+00  -5.387739e-03 -2.962977e-09 0.000000e+00  -5.384179e-03 -3.596874e-06 0.000000e+00  -5.373504e-03 -7.183902e-06 0.000000e+00  -5.355736e-03 -1.075625e-05 0.000000e+00  -5.330915e-03 -1.430611e-05 0.000000e+00  -5.299089e-03 -1.782660e-05 0.000000e+00  -5.260320e-03 -2.131083e-05 0.000000e+00  -5.214690e-03 -2.475101e-05 0.000000e+00  -5.162302e-03 -2.813936e-05 0.000000e+00  -5.103259e-03 -3.146897e-05 0.000000e+00  -5.037677e-03 -3.473293e-05 0.000000e+00  -4.965701e-03 -3.792348e-05 0.000000e+00  -4.887494e-03 -4.103287e-05 0.000000e+00  -4.803216e-03 -4.405421e-05 0.000000e+00  -4.713035e-03 -4.698056e-05 0.000000e+00  -4.617159e-03 -4.980422e-05 0.000000e+00  -4.515812e-03 -5.251758e-05 0.000000e+00  -4.409207e-03 -5.511374e-05 0.000000e+00  -4.297570e-03 -5.758581e-05 0.000000e+00  -4.181167e-03 -5.992624e-05 0.000000e+00  -4.060282e-03 -6.212762e-05 0.000000e+00  -3.935183e-03 -6.418316e-05 0.000000e+00  -3.806148e-03 -6.608606e-05 0.000000e+00  -3.673504e-03 -6.782910e-05 0.000000e+00  -3.537592e-03 -6.940519e-05 0.000000e+00  -3.398731e-03 -7.080778e-05 0.000000e+00  -3.257255e-03 -7.203032e-05 0.000000e+00  -3.113543e-03 -7.306608e-05 0.000000e+00  -2.967990e-03 -7.390853e-05 0.000000e+00  -2.820968e-03 -7.455154e-05 0.000000e+00  -2.672857e-03 -7.498907e-05 0.000000e+00  -2.524089e-03 -7.521513e-05 0.000000e+00  -2.375106e-03 -7.522405e-05 0.000000e+00  -2.226324e-03 -7.501044e-05 0.000000e+00  -2.078170e-03 -7.456910e-05 0.000000e+00  -1.931115e-03 -7.389521e-05 0.000000e+00  -1.785643e-03 -7.298443e-05 0.000000e+00  -1.642207e-03 -7.183260e-05 0.000000e+00  -1.501266e-03 -7.043593e-05 0.000000e+00  -1.363326e-03 -6.879146e-05 0.000000e+00  -1.228893e-03 -6.689695e-05 0.000000e+00  -1.098444e-03 -6.475041e-05 0.000000e+00  -9.724588e-04 -6.235053e-05 0.000000e+00  -8.514519e-04 -5.969753e-05 0.000000e+00  -7.359328e-04 -5.679289e-05 0.000000e+00  -6.263767e-04 -5.363872e-05 0.000000e+00  -5.232543e-04 -5.023862e-05 0.000000e+00  -4.270531e-04 -4.659905e-05 0.000000e+00  -3.382413e-04 -4.272906e-05 0.000000e+00  -2.572422e-04 -3.863983e-05 0.000000e+00  -1.844549e-04 -3.434635e-05 0.000000e+00  -1.202611e-04 -2.986977e-05 0.000000e+00  -6.498935e-05 -2.523799e-05 0.000000e+00  -1.888843e-05 -2.048650e-05 0.000000e+00  1.787244e-05 -1.566262e-05 0.000000e+00  4.522508e-05 -1.083124e-05 0.000000e+00  6.325532e-05 -6.080142e-06 0.000000e+00  7.225629e-05 -1.528614e-06 0.000000e+00  7.279212e-05 2.656038e-06 0.000000e+00  6.580847e-05 6.233766e-06 0.000000e+00  5.279099e-05 8.856518e-06 0.000000e+00  3.597041e-05 1.001545e-05 0.000000e+00  1.863989e-05 9.011007e-06 0.000000e+00  5.096225e-06 5.096616e-06 0.000000e+00  0.000000e+00 0.000000e+00 0.000000e+00  0.000000e+00 0.000000e+00 0.000000e+00  9.099403e-06 -1.859130e-05 0.000000e+00  2.943000e-05 -2.941482e-05 0.000000e+00  5.338274e-05 -3.149482e-05 0.000000e+00  7.477609e-05 -2.661507e-05 0.000000e+00  8.878250e-05 -1.672581e-05 0.000000e+00  9.175934e-05 -3.390734e-06 0.000000e+00  8.112484e-05 1.223477e-05 0.000000e+00  5.512130e-05 2.930917e-05 0.000000e+00  1.262975e-05 4.721747e-05 0.000000e+00  -4.698173e-05 6.550628e-05 0.000000e+00  -1.239732e-04 8.383775e-05 0.000000e+00  -2.183199e-04 1.019576e-04 0.000000e+00  -3.297694e-04 1.196716e-04 0.000000e+00  -4.579303e-04 1.368357e-04 0.000000e+00  -6.022426e-04 1.533344e-04 0.000000e+00  -7.620355e-04 1.690788e-04 0.000000e+00  -9.365972e-04 1.840046e-04 0.000000e+00  -1.125162e-03 1.980629e-04 0.000000e+00  -1.326868e-03 2.112139e-04 0.000000e+00  -1.540814e-03 2.234282e-04 0.000000e+00  -1.766124e-03 2.346883e-04 0.000000e+00  -2.001907e-03 2.449827e-04 0.000000e+00  -2.247205e-03 2.543029e-04 0.000000e+00  -2.501043e-03 2.626457e-04 0.000000e+00  -2.762511e-03 2.700140e-04 0.000000e+00  -3.030705e-03 2.764137e-04 0.000000e+00  -3.304655e-03 2.818521e-04 0.000000e+00  -3.583397e-03 2.863391e-04 0.000000e+00  -3.866049e-03 2.898884e-04 0.000000e+00  -4.151742e-03 2.925152e-04 0.000000e+00  -4.439549e-03 2.942352e-04 0.000000e+00  -4.728558e-03 2.950667e-04 0.000000e+00  -5.017948e-03 2.950291e-04 0.000000e+00  -5.306918e-03 2.941429e-04 0.000000e+00  -5.594611e-03 2.924297e-04 0.000000e+00  -5.880195e-03 2.899123e-04 0.000000e+00  -6.162929e-03 2.866141e-04 0.000000e+00  -6.442098e-03 2.825585e-04 0.000000e+00  -6.716934e-03 2.777708e-04 0.000000e+00  -6.986700e-03 2.722772e-04 0.000000e+00  -7.250750e-03 2.661029e-04 0.000000e+00  -7.508463e-03 2.592734e-04 0.000000e+00  -7.759175e-03 2.518164e-04 0.000000e+00  -8.002254e-03 2.437599e-04 0.000000e+00  -8.237156e-03 2.351306e-04 0.000000e+00  -8.463360e-03 2.259548e-04 0.000000e+00  -8.680313e-03 2.162617e-04 0.000000e+00  -8.887496e-03 2.060807e-04 0.000000e+00  -9.084470e-03 1.954389e-04 0.000000e+00  -9.270820e-03 1.843633e-04 0.000000e+00  -9.446107e-03 1.728837e-04 0.000000e+00  -9.609929e-03 1.610304e-04 0.000000e+00  -9.761954e-03 1.488305e-04 0.000000e+00  -9.901872e-03 1.363113e-04 0.000000e+00  -1.002937e-02 1.235031e-04 0.000000e+00  -1.014415e-02 1.104365e-04 0.000000e+00  -1.024600e-02 9.713865e-05 0.000000e+00  -1.033471e-02 8.363672e-05 0.000000e+00  -1.041009e-02 6.996131e-05 0.000000e+00  -1.047197e-02 5.614311e-05 0.000000e+00  -1.052023e-02 4.220928e-05 0.000000e+00  -1.055477e-02 2.818693e-05 0.000000e+00  -1.057553e-02 1.410675e-05 0.000000e+00  -1.058246e-02 -5.320064e-10 0.000000e+00  -1.057553e-02 -1.410781e-05 0.000000e+00  -1.055478e-02 -2.818799e-05 0.000000e+00  -1.052023e-02 -4.221033e-05 0.000000e+00  -1.047197e-02 -5.614415e-05 0.000000e+00  -1.041010e-02 -6.996233e-05 0.000000e+00  -1.033472e-02 -8.363772e-05 0.000000e+00  -1.024601e-02 -9.713963e-05 0.000000e+00  -1.014416e-02 -1.104375e-04 0.000000e+00  -1.002938e-02 -1.235041e-04 0.000000e+00  -9.901891e-03 -1.363122e-04 0.000000e+00  -9.761975e-03 -1.488314e-04 0.000000e+00  -9.609952e-03 -1.610312e-04 0.000000e+00  -9.446131e-03 -1.728845e-04 0.000000e+00  -9.270846e-03 -1.843641e-04 0.000000e+00  -9.084498e-03 -1.954397e-04 0.000000e+00  -8.887526e-03 -2.060815e-04 0.000000e+00  -8.680344e-03 -2.162625e-04 0.000000e+00  -8.463392e-03 -2.259556e-04 0.000000e+00  -8.237189e-03 -2.351313e-04 0.000000e+00  -8.002288e-03 -2.437607e-04 0.000000e+00  -7.759211e-03 -2.518172e-04 0.000000e+00  -7.508499e-03 -2.592742e-04 0.000000e+00  -7.250787e-03 -2.661037e-04 0.000000e+00  -6.986737e-03 -2.722781e-04 0.000000e+00  -6.716971e-03 -2.777718e-04 0.000000e+00  -6.442135e-03 -2.825595e-04 0.000000e+00  -6.162966e-03 -2.866151e-04 0.000000e+00  -5.880231e-03 -2.899134e-04 0.000000e+00  -5.594647e-03 -2.924308e-04 0.000000e+00  -5.306952e-03 -2.941441e-04 0.000000e+00  -5.017981e-03 -2.950303e-04 0.000000e+00  -4.728589e-03 -2.950679e-04 0.000000e+00  -4.439578e-03 -2.942364e-04 0.000000e+00  -4.151769e-03 -2.925162e-04 0.000000e+00  -3.866074e-03 -2.898894e-04 0.000000e+00  -3.583420e-03 -2.863399e-04 0.000000e+00  -3.304675e-03 -2.818526e-04 0.000000e+00  -3.030723e-03 -2.764140e-04 0.000000e+00  -2.762527e-03 -2.700139e-04 0.000000e+00  -2.501056e-03 -2.626452e-04 0.000000e+00  -2.247215e-03 -2.543020e-04 0.000000e+00  -2.001916e-03 -2.449813e-04 0.000000e+00  -1.766130e-03 -2.346864e-04 0.000000e+00  -1.540818e-03 -2.234257e-04 0.000000e+00  -1.326870e-03 -2.112107e-04 0.000000e+00  -1.125161e-03 -1.980591e-04 0.000000e+00  -9.365953e-04 -1.840002e-04 0.000000e+00  -7.620321e-04 -1.690737e-04 0.000000e+00  -6.022379e-04 -1.533286e-04 0.000000e+00  -4.579243e-04 -1.368294e-04 0.000000e+00  -3.297624e-04 -1.196648e-04 0.000000e+00  -2.183121e-04 -1.019504e-04 0.000000e+00  -1.239702e-04 -8.383170e-05 0.000000e+00  -4.697265e-05 -6.549933e-05 0.000000e+00  1.264253e-05 -4.721013e-05 0.000000e+00  5.513098e-05 -2.930449e-05 0.000000e+00  8.113308e-05 -1.223363e-05 0.000000e+00  9.176769e-05 3.389341e-06 0.000000e+00  8.878723e-05 1.672059e-05 0.000000e+00  7.477956e-05 2.660499e-05 0.000000e+00  5.337671e-05 3.149058e-05 0.000000e+00  2.944254e-05 2.942794e-05 0.000000e+00  9.015260e-06 1.864257e-05 0.000000e+00  0.000000e+00 0.000000e+00 0.000000e+00  0.000000e+00 0.000000e+00 0.000000e+00  1.007257e-05 -3.600582e-05 0.000000e+00  3.160279e-05 -5.340058e-05 0.000000e+00  5.469345e-05 -5.453611e-05 0.000000e+00  7.212501e-05 -4.275026e-05 0.000000e+00  7.824217e-05 -2.131332e-05 0.000000e+00  6.866474e-05 7.036135e-06 0.000000e+00  4.013425e-05 4.015166e-05 0.000000e+00  -9.671959e-06 7.639204e-05 0.000000e+00  -8.230618e-05 1.145119e-04 0.000000e+00  -1.787026e-04 1.535650e-04 0.000000e+00  -2.993024e-04 1.928285e-04 0.000000e+00  -4.441556e-04 2.317475e-04 0.000000e+00  -6.129897e-04 2.698907e-04 0.000000e+00  -8.053320e-04 3.069328e-04 0.000000e+00  -1.020459e-03 3.426099e-04 0.000000e+00  -1.257479e-03 3.767163e-04 0.000000e+00  -1.515437e-03 4.091002e-04 0.000000e+00  -1.793289e-03 4.396446e-04 0.000000e+00  -2.089846e-03 4.682532e-04 0.000000e+00  -2.403852e-03 4.948538e-04 0.000000e+00  -2.734083e-03 5.194004e-04 0.000000e+00  -3.079290e-03 5.418616e-04 0.000000e+00  -3.438114e-03 5.622132e-04 0.000000e+00  -3.809174e-03 5.804428e-04 0.000000e+00  -4.191176e-03 5.965528e-04 0.000000e+00  -4.582829e-03 6.105521e-04 0.000000e+00  -4.982746e-03 6.224529e-04 0.000000e+00  -5.389543e-03 6.322744e-04 0.000000e+00  -5.801953e-03 6.400438e-04 0.000000e+00  -6.218727e-03 6.457920e-04 0.000000e+00  -6.638528e-03 6.495519e-04 0.000000e+00  -7.060037e-03 6.513613e-04 0.000000e+00  -7.482070e-03 6.512618e-04 0.000000e+00  -7.903467e-03 6.492967e-04 0.000000e+00  -8.322987e-03 6.455123e-04 0.000000e+00  -8.739421e-03 6.399579e-04 0.000000e+00  -9.151696e-03 6.326837e-04 0.000000e+00  -9.558772e-03 6.237408e-04 0.000000e+00  -9.959535e-03 6.131839e-04 0.000000e+00  -1.035291e-02 6.010700e-04 0.000000e+00  -1.073796e-02 5.874544e-04 0.000000e+00  -1.111377e-02 5.723927e-04 0.000000e+00  -1.147939e-02 5.559453e-04 0.000000e+00  -1.183389e-02 5.381739e-04 0.000000e+00  -1.217647e-02 5.191369e-04 0.000000e+00  -1.250638e-02 4.988923e-04 0.000000e+00  -1.282281e-02 4.775041e-04 0.000000e+00  -1.312499e-02 4.550371e-04 0.000000e+00  -1.341230e-02 4.315510e-04 0.000000e+00  -1.368412e-02 4.071053e-04 0.000000e+00  -1.393981e-02 3.817659e-04 0.000000e+00  -1.417878e-02 3.555994e-04 0.000000e+00  -1.440055e-02 3.286660e-04 0.000000e+00  -1.460467e-02 3.010258e-04 0.000000e+00  -1.479066e-02 2.727457e-04 0.000000e+00  -1.495812e-02 2.438935e-04 0.000000e+00  -1.510671e-02 2.145292e-04 0.000000e+00  -1.523613e-02 1.847130e-04 0.000000e+00  -1.534611e-02 1.545126e-04 0.000000e+00  -1.543638e-02 1.239960e-04 0.000000e+00  -1.550680e-02 9.322320e-05 0.000000e+00  -1.555720e-02 6.225436e-05 0.000000e+00  -1.558749e-02 3.115741e-05 0.000000e+00  -1.559759e-02 4.150901e-10 0.000000e+00  -1.558749e-02 -3.115658e-05 0.000000e+00  -1.555721e-02 -6.225353e-05 0.000000e+00  -1.550681e-02 -9.322237e-05 0.000000e+00  -1.543640e-02 -1.239951e-04 0.000000e+00  -1.534612e-02 -1.545118e-04 0.000000e+00  -1.523615e-02 -1.847122e-04 0.000000e+00  -1.510673e-02 -2.145283e-04 0.000000e+00  -1.495814e-02 -2.438926e-04 0.000000e+00  -1.479069e-02 -2.727449e-04 0.000000e+00  -1.460470e-02 -3.010249e-04 0.000000e+00  -1.440058e-02 -3.286652e-04 0.000000e+00  -1.417881e-02 -3.555986e-04 0.000000e+00  -1.393984e-02 -3.817651e-04 0.000000e+00  -1.368416e-02 -4.071046e-04 0.000000e+00  -1.341234e-02 -4.315504e-04 0.000000e+00  -1.312504e-02 -4.550365e-04 0.000000e+00  -1.282285e-02 -4.775036e-04 0.000000e+00  -1.250643e-02 -4.988919e-04 0.000000e+00  -1.217652e-02 -5.191366e-04 0.000000e+00  -1.183394e-02 -5.381738e-04 0.000000e+00  -1.147944e-02 -5.559453e-04 0.000000e+00  -1.111383e-02 -5.723930e-04 0.000000e+00  -1.073801e-02 -5.874549e-04 0.000000e+00  -1.035296e-02 -6.010708e-04 0.000000e+00  -9.959588e-03 -6.131850e-04 0.000000e+00  -9.558825e-03 -6.237422e-04 0.000000e+00  -9.151749e-03 -6.326854e-04 0.000000e+00  -8.739473e-03 -6.399599e-04 0.000000e+00  -8.323038e-03 -6.455146e-04 0.000000e+00  -7.903516e-03 -6.492993e-04 0.000000e+00  -7.482118e-03 -6.512646e-04 0.000000e+00  -7.060082e-03 -6.513644e-04 0.000000e+00  -6.638570e-03 -6.495552e-04 0.000000e+00  -6.218767e-03 -6.457953e-0