<?xml version="1.0"?>
<VTKFile type="UnstructuredGrid"  version="0.1"  >
<UnstructuredGrid>
<Piece  NumberOfPoints="16641" NumberOfCells="32768">
<Points>
<DataArray  type="Float32"  NumberOfComponents="3"  format="ascii">0 0 0  0.0078125 0 0  0.015625 0 0  0.0234375 0 0  0.03125 0 0  0.0390625 0 0  0.046875 0 0  0.0546875 0 0  0.0625 0 0  0.0703125 0 0  0.078125 0 0  0.0859375 0 0  0.09375 0 0  0.101562 0 0  0.109375 0 0  0.117188 0 0  0.125 0 0  0.132812 0 0  0.140625 0 0  0.148438 0 0  0.15625 0 0  0.164062 0 0  0.171875 0 0  0.179688 0 0  0.1875 0 0  0.195312 0 0  0.203125 0 0  0.210938 0 0  0.21875 0 0  0.226562 0 0  0.234375 0 0  0.242188 0 0  0.25 0 0  0.257812 0 0  0.265625 0 0  0.273438 0 0  0.28125 0 0  0.289062 0 0  0.296875 0 0  0.304688 0 0  0.3125 0 0  0.320312 0 0  0.328125 0 0  0.335938 0 0  0.34375 0 0  0.351562 0 0  0.359375 0 0  0.367188 0 0  0.375 0 0  0.382812 0 0  0.390625 0 0  0.398438 0 0  0.40625 0 0  0.414062 0 0  0.421875 0 0  0.429688 0 0  0.4375 0 0  0.445312 0 0  0.453125 0 0  0.460938 0 0  0.46875 0 0  0.476562 0 0  0.484375 0 0  0.492188 0 0  0.5 0 0  0.507812 0 0  0.515625 0 0  0.523438 0 0  0.53125 0 0  0.539062 0 0  0.546875 0 0  0.554688 0 0  0.5625 0 0  0.570312 0 0  0.578125 0 0  0.585938 0 0  0.59375 0 0  0.601562 0 0  0.609375 0 0  0.617188 0 0  0.625 0 0  0.632812 0 0  0.640625 0 0  0.648438 0 0  0.65625 0 0  0.664062 0 0  0.671875 0 0  0.679688 0 0  0.6875 0 0  0.695312 0 0  0.703125 0 0  0.710938 0 0  0.71875 0 0  0.726562 0 0  0.734375 0 0  0.742188 0 0  0.75 0 0  0.757812 0 0  0.765625 0 0  0.773438 0 0  0.78125 0 0  0.789062 0 0  0.796875 0 0  0.804688 0 0  0.8125 0 0  0.820312 0 0  0.828125 0 0  0.835938 0 0  0.84375 0 0  0.851562 0 0  0.859375 0 0  0.867188 0 0  0.875 0 0  0.882812 0 0  0.890625 0 0  0.898438 0 0  0.90625 0 0  0.914062 0 0  0.921875 0 0  0.929688 0 0  0.9375 0 0  0.945312 0 0  0.953125 0 0  0.960938 0 0  0.96875 0 0  0.976562 0 0  0.984375 0 0  0.992188 0 0  1 0 0  0 0.0078125 0  0.0078125 0.0078125 0  0.015625 0.0078125 0  0.0234375 0.0078125 0  0.03125 0.0078125 0  0.0390625 0.0078125 0  0.046875 0.0078125 0  0.0546875 0.0078125 0  0.0625 0.0078125 0  0.0703125 0.0078125 0  0.078125 0.0078125 0  0.0859375 0.0078125 0  0.09375 0.0078125 0  0.101562 0.0078125 0  0.109375 0.0078125 0  0.117188 0.0078125 0  0.125 0.0078125 0  0.132812 0.0078125 0  0.140625 0.0078125 0  0.148438 0.0078125 0  0.15625 0.0078125 0  0.164062 0.0078125 0  0.171875 0.0078125 0  0.179688 0.0078125 0  0.1875 0.0078125 0  0.195312 0.0078125 0  0.203125 0.0078125 0  0.210938 0.0078125 0  0.21875 0.0078125 0  0.226562 0.0078125 0  0.234375 0.0078125 0  0.242188 0.0078125 0  0.25 0.0078125 0  0.257812 0.0078125 0  0.265625 0.0078125 0  0.273438 0.0078125 0  0.28125 0.0078125 0  0.289062 0.0078125 0  0.296875 0.0078125 0  0.304688 0.0078125 0  0.3125 0.0078125 0  0.320312 0.0078125 0  0.328125 0.0078125 0  0.335938 0.0078125 0  0.34375 0.0078125 0  0.351562 0.0078125 0  0.359375 0.0078125 0  0.367188 0.0078125 0  0.375 0.0078125 0  0.382812 0.0078125 0  0.390625 0.0078125 0  0.398438 0.0078125 0  0.40625 0.0078125 0  0.414062 0.0078125 0  0.421875 0.0078125 0  0.429688 0.0078125 0  0.4375 0.0078125 0  0.445312 0.0078125 0  0.453125 0.0078125 0  0.460938 0.0078125 0  0.46875 0.0078125 0  0.476562 0.0078125 0  0.484375 0.0078125 0  0.492188 0.0078125 0  0.5 0.0078125 0  0.507812 0.0078125 0  0.515625 0.0078125 0  0.523438 0.0078125 0  0.53125 0.0078125 0  0.539062 0.0078125 0  0.546875 0.0078125 0  0.554688 0.0078125 0  0.5625 0.0078125 0  0.570312 0.0078125 0  0.578125 0.0078125 0  0.585938 0.0078125 0  0.59375 0.0078125 0  0.601562 0.0078125 0  0.609375 0.0078125 0  0.617188 0.0078125 0  0.625 0.0078125 0  0.632812 0.0078125 0  0.640625 0.0078125 0  0.648438 0.0078125 0  0.65625 0.0078125 0  0.664062 0.0078125 0  0.671875 0.0078125 0  0.679688 0.0078125 0  0.6875 0.0078125 0  0.695312 0.0078125 0  0.703125 0.0078125 0  0.710938 0.0078125 0  0.71875 0.0078125 0  0.726562 0.0078125 0  0.734375 0.0078125 0  0.742188 0.0078125 0  0.75 0.0078125 0  0.757812 0.0078125 0  0.765625 0.0078125 0  0.773438 0.0078125 0  0.78125 0.0078125 0  0.789062 0.0078125 0  0.796875 0.0078125 0  0.804688 0.0078125 0  0.8125 0.0078125 0  0.820312 0.0078125 0  0.828125 0.0078125 0  0.835938 0.0078125 0  0.84375 0.0078125 0  0.851562 0.0078125 0  0.859375 0.0078125 0  0.867188 0.0078125 0  0.875 0.0078125 0  0.882812 0.0078125 0  0.890625 0.0078125 0  0.898438 0.0078125 0  0.90625 0.0078125 0  0.914062 0.0078125 0  0.921875 0.0078125 0  0.929688 0.0078125 0  0.9375 0.0078125 0  0.945312 0.0078125 0  0.953125 0.0078125 0  0.960938 0.0078125 0  0.96875 0.0078125 0  0.976562 0.0078125 0  0.984375 0.0078125 0  0.992188 0.0078125 0  1 0.0078125 0  0 0.015625 0  0.0078125 0.015625 0  0.015625 0.015625 0  0.0234375 0.015625 0  0.03125 0.015625 0  0.0390625 0.015625 0  0.046875 0.015625 0  0.0546875 0.015625 0  0.0625 0.015625 0  0.0703125 0.015625 0  0.078125 0.015625 0  0.0859375 0.015625 0  0.09375 0.015625 0  0.101562 0.015625 0  0.109375 0.015625 0  0.117188 0.015625 0  0.125 0.015625 0  0.132812 0.015625 0  0.140625 0.015625 0  0.148438 0.015625 0  0.15625 0.015625 0  0.164062 0.015625 0  0.171875 0.015625 0  0.179688 0.015625 0  0.1875 0.015625 0  0.195312 0.015625 0  0.203125 0.015625 0  0.210938 0.015625 0  0.21875 0.015625 0  0.226562 0.015625 0  0.234375 0.015625 0  0.242188 0.015625 0  0.25 0.015625 0  0.257812 0.015625 0  0.265625 0.015625 0  0.273438 0.015625 0  0.28125 0.015625 0  0.289062 0.015625 0  0.296875 0.015625 0  0.304688 0.015625 0  0.3125 0.015625 0  0.320312 0.015625 0  0.328125 0.015625 0  0.335938 0.015625 0  0.34375 0.015625 0  0.351562 0.015625 0  0.359375 0.015625 0  0.367188 0.015625 0  0.375 0.015625 0  0.382812 0.015625 0  0.390625 0.015625 0  0.398438 0.015625 0  0.40625 0.015625 0  0.414062 0.015625 0  0.421875 0.015625 0  0.429688 0.015625 0  0.4375 0.015625 0  0.445312 0.015625 0  0.453125 0.015625 0  0.460938 0.015625 0  0.46875 0.015625 0  0.476562 0.015625 0  0.484375 0.015625 0  0.492188 0.015625 0  0.5 0.015625 0  0.507812 0.015625 0  0.515625 0.015625 0  0.523438 0.015625 0  0.53125 0.015625 0  0.539062 0.015625 0  0.546875 0.015625 0  0.554688 0.015625 0  0.5625 0.015625 0  0.570312 0.015625 0  0.578125 0.015625 0  0.585938 0.015625 0  0.59375 0.015625 0  0.601562 0.015625 0  0.609375 0.015625 0  0.617188 0.015625 0  0.625 0.015625 0  0.632812 0.015625 0  0.640625 0.015625 0  0.648438 0.015625 0  0.65625 0.015625 0  0.664062 0.015625 0  0.671875 0.015625 0  0.679688 0.015625 0  0.6875 0.015625 0  0.695312 0.015625 0  0.703125 0.015625 0  0.710938 0.015625 0  0.71875 0.015625 0  0.726562 0.015625 0  0.734375 0.015625 0  0.742188 0.015625 0  0.75 0.015625 0  0.757812 0.015625 0  0.765625 0.015625 0  0.773438 0.015625 0  0.78125 0.015625 0  0.789062 0.015625 0  0.796875 0.015625 0  0.804688 0.015625 0  0.8125 0.015625 0  0.820312 0.015625 0  0.828125 0.015625 0  0.835938 0.015625 0  0.84375 0.015625 0  0.851562 0.015625 0  0.859375 0.015625 0  0.867188 0.015625 0  0.875 0.015625 0  0.882812 0.015625 0  0.890625 0.015625 0  0.898438 0.015625 0  0.90625 0.015625 0  0.914062 0.015625 0  0.921875 0.015625 0  0.929688 0.015625 0  0.9375 0.015625 0  0.945312 0.015625 0  0.953125 0.015625 0  0.960938 0.015625 0  0.96875 0.015625 0  0.976562 0.015625 0  0.984375 0.015625 0  0.992188 0.015625 0  1 0.015625 0  0 0.0234375 0  0.0078125 0.0234375 0  0.015625 0.0234375 0  0.0234375 0.0234375 0  0.03125 0.0234375 0  0.0390625 0.0234375 0  0.046875 0.0234375 0  0.0546875 0.0234375 0  0.0625 0.0234375 0  0.0703125 0.0234375 0  0.078125 0.0234375 0  0.0859375 0.0234375 0  0.09375 0.0234375 0  0.101562 0.0234375 0  0.109375 0.0234375 0  0.117188 0.0234375 0  0.125 0.0234375 0  0.132812 0.0234375 0  0.140625 0.0234375 0  0.148438 0.0234375 0  0.15625 0.0234375 0  0.164062 0.0234375 0  0.171875 0.0234375 0  0.179688 0.0234375 0  0.1875 0.0234375 0  0.195312 0.0234375 0  0.203125 0.0234375 0  0.210938 0.0234375 0  0.21875 0.0234375 0  0.226562 0.0234375 0  0.234375 0.0234375 0  0.242188 0.0234375 0  0.25 0.0234375 0  0.257812 0.0234375 0  0.265625 0.0234375 0  0.273438 0.0234375 0  0.28125 0.0234375 0  0.289062 0.0234375 0  0.296875 0.0234375 0  0.304688 0.0234375 0  0.3125 0.0234375 0  0.320312 0.0234375 0  0.328125 0.0234375 0  0.335938 0.0234375 0  0.34375 0.0234375 0  0.351562 0.0234375 0  0.359375 0.0234375 0  0.367188 0.0234375 0  0.375 0.0234375 0  0.382812 0.0234375 0  0.390625 0.0234375 0  0.398438 0.0234375 0  0.40625 0.0234375 0  0.414062 0.0234375 0  0.421875 0.0234375 0  0.429688 0.0234375 0  0.4375 0.0234375 0  0.445312 0.0234375 0  0.453125 0.0234375 0  0.460938 0.0234375 0  0.46875 0.0234375 0  0.476562 0.0234375 0  0.484375 0.0234375 0  0.492188 0.0234375 0  0.5 0.0234375 0  0.507812 0.0234375 0  0.515625 0.0234375 0  0.523438 0.0234375 0  0.53125 0.0234375 0  0.539062 0.0234375 0  0.546875 0.0234375 0  0.554688 0.0234375 0  0.5625 0.0234375 0  0.570312 0.0234375 0  0.578125 0.0234375 0  0.585938 0.0234375 0  0.59375 0.0234375 0  0.601562 0.0234375 0  0.609375 0.0234375 0  0.617188 0.0234375 0  0.625 0.0234375 0  0.632812 0.0234375 0  0.640625 0.0234375 0  0.648438 0.0234375 0  0.65625 0.0234375 0  0.664062 0.0234375 0  0.671875 0.0234375 0  0.679688 0.0234375 0  0.6875 0.0234375 0  0.695312 0.0234375 0  0.703125 0.0234375 0  0.710938 0.0234375 0  0.71875 0.0234375 0  0.726562 0.0234375 0  0.734375 0.0234375 0  0.742188 0.0234375 0  0.75 0.0234375 0  0.757812 0.0234375 0  0.765625 0.0234375 0  0.773438 0.0234375 0  0.78125 0.0234375 0  0.789062 0.0234375 0  0.796875 0.0234375 0  0.804688 0.0234375 0  0.8125 0.0234375 0  0.820312 0.0234375 0  0.828125 0.0234375 0  0.835938 0.0234375 0  0.84375 0.0234375 0  0.851562 0.0234375 0  0.859375 0.0234375 0  0.867188 0.0234375 0  0.875 0.0234375 0  0.882812 0.0234375 0  0.890625 0.0234375 0  0.898438 0.0234375 0  0.90625 0.0234375 0  0.914062 0.0234375 0  0.921875 0.0234375 0  0.929688 0.0234375 0  0.9375 0.0234375 0  0.945312 0.0234
[...]
<PointData  Vectors="u"> 
<DataArray  type="Float32"  Name="u"  NumberOfComponents="3" format="ascii">0.000000e+00 0.000000e+00 0.000000e+00  0.000000e+00 0.000000e+00 0.000000e+00  0.000000e+00 0.000000e+00 0.000000e+00  0.000000e+00 0.000000e+00 0.000000e+00  0.000000e+00 0.000000e+00 0.000000e+00  0.000000e+00 0.000000e+00 0.000000e+00  0.000000e+00 0.000000e+00 0.000000e+00  0.000000e+00 0.000000e+00 0.000000e+00  0.000000e+00 0.000000e+00 0.000000e+00  0.000000e+00 0.000000e+00 0.000000e+00  0.000000e+00 0.000000e+00 0.000000e+00  0.000000e+00 0.000000e+00 0.000000e+00  0.000000e+00 0.000000e+00 0.000000e+00  0.000000e+00 0.000000e+00 0.000000e+00  0.000000e+00 0.000000e+00 0.000000e+00  0.000000e+00 0.000000e+00 0.000000e+00  0.000000e+00 0.000000e+00 0.000000e+00  0.000000e+00 0.000000e+00 0.000000e+00  0.000000e+00 0.000000e+00 0.000000e+00  0.000000e+00 0.000000e+00 0.000000e+00  0.000000e+00 0.000000e+00 0.000000e+00  0.000000e+00 0.000000e+00 0.000000e+00  0.000000e+00 0.000000e+00 0.000000e+00  0.000000e+00 0.000000e+00 0.000000e+00  0.000000e+00 0.000000e+00 0.000000e+00  0.000000e+00 0.000000e+00 0.000000e+00  0.000000e+00 0.000000e+00 0.000000e+00  0.000000e+00 0.000000e+00 0.000000e+00  0.000000e+00 0.000000e+00 0.000000e+00  0.000000e+00 0.000000e+00 0.000000e+00  0.000000e+00 0.000000e+00 0.000000e+00  0.000000e+00 0.000000e+00 0.000000e+00  0.000000e+00 0.000000e+00 0.000000e+00  0.000000e+00 0.000000e+00 0.000000e+00  0.000000e+00 0.000000e+00 0.000000e+00  0.000000e+00 0.000000e+00 0.000000e+00  0.000000e+00 0.000000e+00 0.000000e+00  0.000000e+00 0.000000e+00 0.000000e+00  0.000000e+00 0.000000e+00 0.000000e+00  0.000000e+00 0.000000e+00 0.000000e+00  0.000000e+00 0.000000e+00 0.000000e+00  0.000000e+00 0.000000e+00 0.000000e+00  0.000000e+00 0.000000e+00 0.000000e+00  0.000000e+00 0.000000e+00 0.000000e+00  0.000000e+00 0.000000e+00 0.000000e+00  0.000000e+00 0.000000e+00 0.000000e+00  0.000000e+00 0.000000e+00 0.000000e+00  0.000000e+00 0.000000e+00 0.000000e+00  0.000000e+00 0.000000e+00 0.000000e+00  0.000000e+00 0.000000e+00 0.000000e+00  0.000000e+00 0.000000e+00 0.000000e+00  0.000000e+00 0.000000e+00 0.000000e+00  0.000000e+00 0.000000e+00 0.000000e+00  0.000000e+00 0.000000e+00 0.000000e+00  0.000000e+00 0.000000e+00 0.000000e+00  0.000000e+00 0.000000e+00 0.000000e+00  0.000000e+00 0.000000e+00 0.000000e+00  0.000000e+00 0.000000e+00 0.000000e+00  0.000000e+00 0.000000e+00 0.000000e+00  0.000000e+00 0.000000e+00 0.000000e+00  0.000000e+00 0.000000e+00 0.000000e+00  0.000000e+00 0.000000e+00 0.000000e+00  0.000000e+00 0.000000e+00 0.000000e+00  0.000000e+00 0.000000e+00 0.000000e+00  0.000000e+00 0.000000e+00 0.000000e+00  0.000000e+00 0.000000e+00 0.000000e+00  0.000000e+00 0.000000e+00 0.000000e+00  0.000000e+00 0.000000e+00 0.000000e+00  0.000000e+00 0.000000e+00 0.000000e+00  0.000000e+00 0.000000e+00 0.000000e+00  0.000000e+00 0.000000e+00 0.000000e+00  0.000000e+00 0.000000e+00 0.000000e+00  0.000000e+00 0.000000e+00 0.000000e+00  0.000000e+00 0.000000e+00 0.000000e+00  0.000000e+00 0.000000e+00 0.000000e+00  0.000000e+00 0.000000e+00 0.000000e+00  0.000000e+00 0.000000e+00 0.000000e+00  0.000000e+00 0.000000e+00 0.000000e+00  0.000000e+00 0.000000e+00 0.000000e+00  0.000000e+00 0.000000e+00 0.000000e+00  0.000000e+00 0.000000e+00 0.000000e+00  0.000000e+00 0.000000e+00 0.000000e+00  0.000000e+00 0.000000e+00 0.000000e+00  0.000000e+00 0.000000e+00 0.000000e+00  0.000000e+00 0.000000e+00 0.000000e+00  0.000000e+00 0.000000e+00 0.000000e+00  0.000000e+00 0.000000e+00 0.000000e+00  0.000000e+00 0.000000e+00 0.000000e+00  0.000000e+00 0.000000e+00 0.000000e+00  0.000000e+00 0.000000e+00 0.000000e+00  0.000000e+00 0.000000e+00 0.000000e+00  0.000000e+00 0.000000e+00 0.000000e+00  0.000000e+00 0.000000e+00 0.000000e+00  0.000000e+00 0.000000e+00 0.000000e+00  0.000000e+00 0.000000e+00 0.000000e+00  0.000000e+00 0.000000e+00 0.000000e+00  0.000000e+00 0.000000e+00 0.000000e+00  0.000000e+00 0.000000e+00 0.000000e+00  0.000000e+00 0.000000e+00 0.000000e+00  0.000000e+00 0.000000e+00 0.000000e+00  0.000000e+00 0.000000e+00 0.000000e+00  0.000000e+00 0.000000e+00 0.000000e+00  0.000000e+00 0.000000e+00 0.000000e+00  0.000000e+00 0.000000e+00 0.000000e+00  0.000000e+00 0.000000e+00 0.000000e+00  0.000000e+00 0.000000e+00 0.000000e+00  0.000000e+00 0.000000e+00 0.000000e+00  0.000000e+00 0.000000e+00 0.000000e+00  0.000000e+00 0.000000e+00 0.000000e+00  0.000000e+00 0.000000e+00 0.000000e+00  0.000000e+00 0.000000e+00 0.000000e+00  0.000000e+00 0.000000e+00 0.000000e+00  0.000000e+00 0.000000e+00 0.000000e+00  0.000000e+00 0.000000e+00 0.000000e+00  0.000000e+00 0.000000e+00 0.000000e+00  0.000000e+00 0.000000e+00 0.000000e+00  0.000000e+00 0.000000e+00 0.000000e+00  0.000000e+00 0.000000e+00 0.000000e+00  0.000000e+00 0.000000e+00 0.000000e+00  0.000000e+00 0.000000e+00 0.000000e+00  0.000000e+00 0.000000e+00 0.000000e+00  0.000000e+00 0.000000e+00 0.000000e+00  0.000000e+00 0.000000e+00 0.000000e+00  0.000000e+00 0.000000e+00 0.000000e+00  0.000000e+00 0.000000e+00 0.000000e+00  0.000000e+00 0.000000e+00 0.000000e+00  0.000000e+00 0.000000e+00 0.000000e+00  0.000000e+00 0.000000e+00 0.000000e+00  0.000000e+00 0.000000e+00 0.000000e+00  0.000000e+00 0.000000e+00 0.000000e+00  5.489986e-06 -5.489850e-06 0.000000e+00  1.965235e-05 -9.620865e-06 0.000000e+00  3.806387e-05 -1.063962e-05 0.000000e+00  5.589896e-05 -9.401148e-06 0.000000e+00  6.976854e-05 -6.634030e-06 0.000000e+00  7.729808e-05 -2.866150e-06 0.000000e+00  7.692103e-05 1.537034e-06 0.000000e+00  6.764035e-05 6.324123e-06 0.000000e+00  4.886389e-05 1.131834e-05 0.000000e+00  2.029170e-05 1.639328e-05 0.000000e+00  -1.816306e-05 2.145716e-05 0.000000e+00  -6.642984e-05 2.644249e-05 0.000000e+00  -1.243168e-04 3.129885e-05 0.000000e+00  -1.915603e-04 3.598982e-05 0.000000e+00  -2.678113e-04 4.048688e-05 0.000000e+00  -3.526668e-04 4.476876e-05 0.000000e+00  -4.457074e-04 4.882083e-05 0.000000e+00  -5.464903e-04 5.263261e-05 0.000000e+00  -6.545283e-04 5.619593e-05 0.000000e+00  -7.693169e-04 5.950537e-05 0.000000e+00  -8.903711e-04 6.255846e-05 0.000000e+00  -1.017204e-03 6.535428e-05 0.000000e+00  -1.149296e-03 6.789242e-05 0.000000e+00  -1.286122e-03 7.017363e-05 0.000000e+00  -1.427198e-03 7.220008e-05 0.000000e+00  -1.572042e-03 7.397445e-05 0.000000e+00  -1.720142e-03 7.549940e-05 0.000000e+00  -1.870990e-03 7.677811e-05 0.000000e+00  -2.024123e-03 7.781440e-05 0.000000e+00  -2.179087e-03 7.861224e-05 0.000000e+00  -2.335393e-03 7.917553e-05 0.000000e+00  -2.492562e-03 7.950844e-05 0.000000e+00  -2.650164e-03 7.961542e-05 0.000000e+00  -2.807775e-03 7.950091e-05 0.000000e+00  -2.964943e-03 7.916945e-05 0.000000e+00  -3.121222e-03 7.862581e-05 0.000000e+00  -3.276216e-03 7.787472e-05 0.000000e+00  -3.429541e-03 7.692090e-05 0.000000e+00  -3.580779e-03 7.576940e-05 0.000000e+00  -3.729525e-03 7.442546e-05 0.000000e+00  -3.875422e-03 7.289412e-05 0.000000e+00  -4.018123e-03 7.118047e-05 0.000000e+00  -4.157253e-03 6.929016e-05 0.000000e+00  -4.292452e-03 6.722912e-05 0.000000e+00  -4.423404e-03 6.500298e-05 0.000000e+00  -4.549805e-03 6.261751e-05 0.000000e+00  -4.671329e-03 6.007936e-05 0.000000e+00  -4.787666e-03 5.739550e-05 0.000000e+00  -4.898550e-03 5.457252e-05 0.000000e+00  -5.003725e-03 5.161726e-05 0.000000e+00  -5.102924e-03 4.853756e-05 0.000000e+00  -5.195896e-03 4.534164e-05 0.000000e+00  -5.282432e-03 4.203718e-05 0.000000e+00  -5.362335e-03 3.863204e-05 0.000000e+00  -5.435403e-03 3.513521e-05 0.000000e+00  -5.501456e-03 3.155590e-05 0.000000e+00  -5.560349e-03 2.790264e-05 0.000000e+00  -5.611950e-03 2.418404e-05 0.000000e+00  -5.656132e-03 2.040982e-05 0.000000e+00  -5.692789e-03 1.658984e-05 0.000000e+00  -5.721846e-03 1.273304e-05 0.000000e+00  -5.743242e-03 8.848450e-06 0.000000e+00  -5.756927e-03 4.946096e-06 0.000000e+00  -5.762876e-03 1.036052e-06 0.000000e+00  -5.761083e-03 -2.872631e-06 0.000000e+00  -5.751558e-03 -6.770954e-06 0.000000e+00  -5.734333e-03 -1.064899e-05 0.000000e+00  -5.709459e-03 -1.449692e-05 0.000000e+00  -5.677003e-03 -1.830609e-05 0.000000e+00  -5.637043e-03 -2.206802e-05 0.000000e+00  -5.589687e-03 -2.577351e-05 0.000000e+00  -5.535060e-03 -2.941367e-05 0.000000e+00  -5.473295e-03 -3.298088e-05 0.000000e+00  -5.404532e-03 -3.646789e-05 0.000000e+00  -5.328946e-03 -3.986695e-05 0.000000e+00  -5.246728e-03 -4.317080e-05 0.000000e+00  -5.158063e-03 -4.637350e-05 0.000000e+00  -5.063143e-03 -4.946953e-05 0.000000e+00  -4.962197e-03 -5.245299e-05 0.000000e+00  -4.855467e-03 -5.531843e-05 0.000000e+00  -4.743178e-03 -5.806148e-05 0.000000e+00  -4.625561e-03 -6.067798e-05 0.000000e+00  -4.502886e-03 -6.316319e-05 0.000000e+00  -4.375435e-03 -6.551244e-05 0.000000e+00  -4.243465e-03 -6.772153e-05 0.000000e+00  -4.107244e-03 -6.978591e-05 0.000000e+00  -3.967080e-03 -7.170002e-05 0.000000e+00  -3.823296e-03 -7.345776e-05 0.000000e+00  -3.676193e-03 -7.505283e-05 0.000000e+00  -3.526080e-03 -7.647803e-05 0.000000e+00  -3.373323e-03 -7.772495e-05 0.000000e+00  -3.218304e-03 -7.878442e-05 0.000000e+00  -3.061386e-03 -7.964680e-05 0.000000e+00  -2.902950e-03 -8.030169e-05 0.000000e+00  -2.743438e-03 -8.073804e-05 0.000000e+00  -2.583313e-03 -8.094461e-05 0.000000e+00  -2.423022e-03 -8.091022e-05 0.000000e+00  -2.263031e-03 -8.062388e-05 0.000000e+00  -2.103868e-03 -8.007514e-05 0.000000e+00  -1.946080e-03 -7.925454e-05 0.000000e+00  -1.790192e-03 -7.815351e-05 0.000000e+00  -1.636744e-03 -7.676468e-05 0.000000e+00  -1.486326e-03 -7.508249e-05 0.000000e+00  -1.339540e-03 -7.310319e-05 0.000000e+00  -1.196951e-03 -7.082430e-05 0.000000e+00  -1.059131e-03 -6.824508e-05 0.000000e+00  -9.266855e-04 -6.536726e-05 0.000000e+00  -8.002124e-04 -6.219471e-05 0.000000e+00  -6.802662e-04 -5.873256e-05 0.000000e+00  -5.673913e-04 -5.498796e-05 0.000000e+00  -4.621435e-04 -5.097142e-05 0.000000e+00  -3.650512e-04 -4.669634e-05 0.000000e+00  -2.765870e-04 -4.217835e-05 0.000000e+00  -1.971905e-04 -3.743707e-05 0.000000e+00  -1.272765e-04 -3.249857e-05 0.000000e+00  -6.719608e-05 -2.739592e-05 0.000000e+00  -1.720872e-05 -2.217010e-05 0.000000e+00  2.251685e-05 -1.687464e-05 0.000000e+00  5.192561e-05 -1.158183e-05 0.000000e+00  7.113308e-05 -6.388623e-06 0.000000e+00  8.048272e-05 -1.425979e-06 0.000000e+00  8.061478e-05 3.123098e-06 0.000000e+00  7.258623e-05 6.996668e-06 0.000000e+00  5.804230e-05 9.815675e-06 0.000000e+00  3.943808e-05 1.102707e-05 0.000000e+00  2.038073e-05 9.873362e-06 0.000000e+00  5.555010e-06 5.555550e-06 0.000000e+00  0.000000e+00 0.000000e+00 0.000000e+00  0.000000e+00 0.000000e+00 0.000000e+00  9.627748e-06 -1.965639e-05 0.000000e+00  3.116137e-05 -3.114359e-05 0.000000e+00  5.657359e-05 -3.340376e-05 0.000000e+00  7.933792e-05 -2.831293e-05 0.000000e+00  9.435674e-05 -1.793073e-05 0.000000e+00  9.778490e-05 -3.911201e-06 0.000000e+00  8.689989e-05 1.252229e-05 0.000000e+00  5.985181e-05 3.047830e-05 0.000000e+00  1.546710e-05 4.930544e-05 0.000000e+00  -4.691226e-05 6.852389e-05 0.000000e+00  -1.275513e-04 8.777683e-05 0.000000e+00  -2.264147e-04 1.067966e-04 0.000000e+00  -3.432282e-04 1.253800e-04 0.000000e+00  -4.775725e-04 1.433773e-04 0.000000e+00  -6.288536e-04 1.606701e-04 0.000000e+00  -7.963637e-04 1.771684e-04 0.000000e+00  -9.793556e-04 1.928088e-04 0.000000e+00  -1.177029e-03 2.075447e-04 0.000000e+00  -1.388489e-03 2.213391e-04 0.000000e+00  -1.612802e-03 2.341664e-04 0.000000e+00  -1.849064e-03 2.460129e-04 0.000000e+00  -2.096365e-03 2.568713e-04 0.000000e+00  -2.353723e-03 2.667372e-04 0.000000e+00  -2.620147e-03 2.756107e-04 0.000000e+00  -2.894713e-03 2.834979e-04 0.000000e+00  -3.176508e-03 2.904073e-04 0.000000e+00  -3.464551e-03 2.963474e-04 0.000000e+00  -3.757868e-03 3.013293e-04 0.000000e+00  -4.055570e-03 3.053665e-04 0.000000e+00  -4.356784e-03 3.084735e-04 0.000000e+00  -4.660569e-03 3.106646e-04 0.000000e+00  -4.966000e-03 3.119553e-04 0.000000e+00  -5.272245e-03 3.123625e-04 0.000000e+00  -5.578488e-03 3.119028e-04 0.000000e+00  -5.883849e-03 3.105937e-04 0.000000e+00  -6.187467e-03 3.084534e-04 0.000000e+00  -6.488577e-03 3.055003e-04 0.000000e+00  -6.786430e-03 3.017525e-04 0.000000e+00  -7.080217e-03 2.972298e-04 0.000000e+00  -7.369154e-03 2.919527e-04 0.000000e+00  -7.652547e-03 2.859408e-04 0.000000e+00  -7.929722e-03 2.792142e-04 0.000000e+00  -8.199953e-03 2.717950e-04 0.000000e+00  -8.462540e-03 2.637067e-04 0.000000e+00  -8.716873e-03 2.549715e-04 0.000000e+00  -8.962360e-03 2.456120e-04 0.000000e+00  -9.198371e-03 2.356545e-04 0.000000e+00  -9.424304e-03 2.251263e-04 0.000000e+00  -9.639644e-03 2.140536e-04 0.000000e+00  -9.843897e-03 2.024629e-04 0.000000e+00  -1.003654e-02 1.903852e-04 0.000000e+00  -1.021710e-02 1.778528e-04 0.000000e+00  -1.038516e-02 1.648955e-04 0.000000e+00  -1.054035e-02 1.515442e-04 0.000000e+00  -1.068226e-02 1.378341e-04 0.000000e+00  -1.081057e-02 1.238012e-04 0.000000e+00  -1.092497e-02 1.094788e-04 0.000000e+00  -1.102523e-02 9.490043e-05 0.000000e+00  -1.111108e-02 8.010416e-05 0.000000e+00  -1.118234e-02 6.512842e-05 0.000000e+00  -1.123884e-02 5.000818e-05 0.000000e+00  -1.128047e-02 3.477859e-05 0.000000e+00  -1.130714e-02 1.947886e-05 0.000000e+00  -1.131880e-02 4.148243e-06 0.000000e+00  -1.131543e-02 -1.117796e-05 0.000000e+00  -1.129705e-02 -2.646463e-05 0.000000e+00  -1.126371e-02 -4.167303e-05 0.000000e+00  -1.121553e-02 -5.676490e-05 0.000000e+00  -1.115262e-02 -7.170648e-05 0.000000e+00  -1.107514e-02 -8.646468e-05 0.000000e+00  -1.098329e-02 -1.010035e-04 0.000000e+00  -1.087731e-02 -1.152883e-04 0.000000e+00  -1.075745e-02 -1.292893e-04 0.000000e+00  -1.062399e-02 -1.429780e-04 0.000000e+00  -1.047726e-02 -1.563240e-04 0.000000e+00  -1.031763e-02 -1.692986e-04 0.000000e+00  -1.014545e-02 -1.818784e-04 0.000000e+00  -9.961105e-03 -1.940413e-04 0.000000e+00  -9.765024e-03 -2.057638e-04 0.000000e+00  -9.557681e-03 -2.170240e-04 0.000000e+00  -9.339510e-03 -2.278043e-04 0.000000e+00  -9.110963e-03 -2.380874e-04 0.000000e+00  -8.872564e-03 -2.478542e-04 0.000000e+00  -8.624864e-03 -2.570855e-04 0.000000e+00  -8.368367e-03 -2.657642e-04 0.000000e+00  -8.103592e-03 -2.738716e-04 0.000000e+00  -7.831148e-03 -2.813855e-04 0.000000e+00  -7.551668e-03 -2.882815e-04 0.000000e+00  -7.265738e-03 -2.945347e-04 0.000000e+00  -6.973971e-03 -3.001168e-04 0.000000e+00  -6.677079e-03 -3.049952e-04 0.000000e+00  -6.375814e-03 -3.091345e-04 0.000000e+00  -6.070882e-03 -3.124978e-04 0.000000e+00  -5.763026e-03 -3.150454e-04 0.000000e+00  -5.453107e-03 -3.167353e-04 0.000000e+00  -5.142026e-03 -3.175252e-04 0.000000e+00  -4.830643e-03 -3.173732e-04 0.000000e+00  -4.519859e-03 -3.162379e-04 0.000000e+00  -4.210690e-03 -3.140807e-04 0.000000e+00  -3.904189e-03 -3.108664e-04 0.000000e+00  -3.601356e-03 -3.065637e-04 0.000000e+00  -3.303222e-03 -3.011456e-04 0.000000e+00  -3.010917e-03 -2.945926e-04 0.000000e+00  -2.725578e-03 -2.868919e-04 0.000000e+00  -2.448281e-03 -2.780360e-04 0.000000e+00  -2.180104e-03 -2.680240e-04 0.000000e+00  -1.922189e-03 -2.568650e-04 0.000000e+00  -1.675660e-03 -2.445766e-04 0.000000e+00  -1.441554e-03 -2.311816e-04 0.000000e+00  -1.220882e-03 -2.167112e-04 0.000000e+00  -1.014674e-03 -2.012101e-04 0.000000e+00  -8.239017e-04 -1.847350e-04 0.000000e+00  -6.494213e-04 -1.673520e-04 0.000000e+00  -4.920184e-04 -1.491434e-04 0.000000e+00  -3.524230e-04 -1.302174e-04 0.000000e+00  -2.312344e-04 -1.107100e-04 0.000000e+00  -1.288652e-04 -9.078825e-05 0.000000e+00  -4.554528e-05 -7.066733e-05 0.000000e+00  1.871725e-05 -5.063304e-05 0.000000e+00  6.423934e-05 -3.106094e-05 0.000000e+00  9.176050e-05 -1.244610e-05 0.000000e+00  1.025438e-04 4.541337e-06 0.000000e+00  9.854338e-05 1.898142e-05 0.000000e+00  8.262229e-05 2.961752e-05 0.000000e+00  5.877610e-05 3.476542e-05 0.000000e+00  3.233223e-05 3.231816e-05 0.000000e+00  9.876922e-06 2.038312e-05 0.000000e+00  0.000000e+00 0.000000e+00 0.000000e+00  0.000000e+00 0.000000e+00 0.000000e+00  1.067458e-05 -3.810343e-05 0.000000e+00  3.351971e-05 -5.659044e-05 0.000000e+00  5.808164e-05 -5.791518e-05 0.000000e+00  7.673583e-05 -4.559386e-05 0.000000e+00  8.351173e-05 -2.308124e-05 0.000000e+00  7.378772e-05 6.725560e-06 0.000000e+00  4.412968e-05 4.155397e-05 0.000000e+00  -7.905644e-06 7.966577e-05 0.000000e+00  -8.394595e-05 1.197423e-04 0.000000e+00  -1.849650e-04 1.607824e-04 0.000000e+00  -3.114159e-04 2.020231e-04 0.000000e+00  -4.633394e-04 2.428803e-04 0.000000e+00  -6.404379e-04 2.829027e-04 0.000000e+00  -8.422048e-04 3.217520e-04 0.000000e+00  -1.067873e-03 3.591569e-04 0.000000e+00  -1.316504e-03 3.949085e-04 0.000000e+00  -1.587093e-03 4.288561e-04 0.000000e+00  -1.878553e-03 4.608865e-04 0.000000e+00  -2.189648e-03 4.909088e-04 0.000000e+00  -2.519077e-03 5.188578e-04 0.000000e+00  -2.865580e-03 5.446956e-04 0.000000e+00  -3.227877e-03 5.683990e-04 0.000000e+00  -3.604577e-03 5.899516e-04 0.000000e+00  -3.994272e-03 6.093483e-04 0.000000e+00  -4.395650e-03 6.265976e-04 0.000000e+00  -4.807402e-03 6.417136e-04 0.000000e+00  -5.228126e-03 6.547116e-04 0.000000e+00  -5.656420e-03 6.656125e-04 0.000000e+00  -6.091005e-03 6.744434e-04 0.000000e+00  -6.530621e-03 6.812336e-04 0.000000e+00  -6.973913e-03 6.860126e-04 0.000000e+00  -7.419539e-03 6.888128e-04 0.000000e+00  -7.866296e-03 6.896698e-04 0.000000e+00  -8.313001e-03 6.886191e-04 0.000000e+00  -8.758378e-03 6.856981e-04 0.000000e+00  -9.201177e-03 6.809462e-04 0.000000e+00  -9.640285e-03 6.744030e-04 0.000000e+00  -1.007461e-02 6.661085e-04 0.000000e+00  -1.050299e-02 6.561054e-04 0.000000e+00  -1.092427e-02 6.444388e-04 0.000000e+00  -1.133744e-02 6.311521e-04 0.000000e+00  -1.174153e-02 6.162894e-04 0.000000e+00  -1.213548e-02 5.998999e-04 0.000000e+00  -1.251827e-02 5.820351e-04 0.000000e+00  -1.288902e-02 5.627443e-04 0.000000e+00  -1.324685e-02 5.420779e-04 0.000000e+00  -1.359087e-02 5.200938e-04 0.000000e+00  -1.392018e-02 4.968526e-04 0.000000e+00  -1.423405e-02 4.724118e-04 0.000000e+00  -1.453176e-02 4.468306e-04 0.000000e+00  -1.481255e-02 4.201771e-04 0.000000e+00  -1.507572e-02 3.925222e-04 0.000000e+00  -1.532068e-02 3.639322e-04 0.000000e+00  -1.554688e-02 3.344749e-04 0.000000e+00  -1.575376e-02 3.042276e-04 0.000000e+00  -1.594079e-02 2.732695e-04 0.000000e+00  -1.610759e-02 2.416737e-04 0.000000e+00  -1.625377e-02 2.095142e-04 0.000000e+00  -1.637898e-02 1.768744e-04 0.000000e+00  -1.648293e-02 1.438388e-04 0.000000e+00  -1.656539e-02 1.104841e-04 0.000000e+00  -1.662619e-02 7.688754e-05 0.000000e+00  -1.666520e-02 4.313517e-05 0.000000e+00  -1.668233e-02 9.313225e-06 0.000000e+00  -1.667757e-02 -2.450087e-05 0.000000e+00  -1.665095e-02 -5.823005e-05 0.000000e+00  -1.660254e-02 -9.178927e-05 0.000000e+00  -1.653249e-02 -1.250945e-04 0.000000e+00  -1.644098e-02 -1.580717e-04 0.000000e+00  -1.632822e-02 -1.906482e-04 0.000000e+00  -1.619451e-02 -2.227449e-04 0.000000e+00  -1.604020e-02 -2.542854e-04 0.000000e+00  -1.586565e-02 -2.852042e-04 0.000000e+00  -1.567125e-02 -3.154386e-04 0.000000e+00  -1.545749e-02 -3.449212e-04 0.000000e+00  -1.522489e-02 -3.735886e-04 0.000000e+00  -1.497398e-02 -4.013885e-04 0.000000e+00  -1.470529e-02 -4.282717e-04 0.000000e+00  -1.441946e-02 -4.541854e-04 0.000000e+00  -1.411717e-02 -4.790803e-04 0.000000e+00  -1.379907e-02 -5.029162e-04 0.000000e+00  -1.346579e-02 -5.256540e-04 0.000000e+00  -1.311812e-02 -5.472499e-04 0.000000e+00  -1.275685e-02 -5.676603e-04 0.000000e+00  -1.238272e-02 -5.868458e-04 0.000000e+00  -1.199650e-02 -6.047645e-04 0.000000e+00  -1.159907e-02 -6.213656e-04 0.000000e+00  -1.119137e-02 -6.365951e-04 0.000000e+00  -1.077426e-02 -6.503975e-04 0.000000e+00  -1.034863e-02 -6.627106e-04 0.000000e+00  -9.915528e-03 -6.734629e-04 0.000000e+00  -9.476058e-03 -6.825774e-04 0.000000e+00  -9.031253e-03 -6.899744e-04 0.000000e+00  -8.582197e-03 -6.955688e-04 0.000000e+00  -8.130143e-03 -6.992708e-04 0.000000e+00  -7.676401e-03 -7.009901e-04 0.000000e+00  -7.222222e-03 -7.006378e-04 0.000000e+00  -6.768906e-03 -6.981270e-04 