<?xml version="1.0"?>
<VTKFile type="UnstructuredGrid"  version="0.1"  >
<UnstructuredGrid>
<Piece  NumberOfPoints="16641" NumberOfCells="32768">
<Points>
<DataArray  type="Float32"  NumberOfComponents="3"  format="ascii">0 0 0  0.0078125 0 0  0.015625 0 0  0.0234375 0 0  0.03125 0 0  0.0390625 0 0  0.046875 0 0  0.0546875 0 0  0.0625 0 0  0.0703125 0 0  0.078125 0 0  0.0859375 0 0  0.09375 0 0  0.101562 0 0  0.109375 0 0  0.117188 0 0  0.125 0 0  0.132812 0 0  0.140625 0 0  0.148438 0 0  0.15625 0 0  0.164062 0 0  0.171875 0 0  0.179688 0 0  0.1875 0 0  0.195312 0 0  0.203125 0 0  0.210938 0 0  0.21875 0 0  0.226562 0 0  0.234375 0 0  0.242188 0 0  0.25 0 0  0.257812 0 0  0.265625 0 0  0.273438 0 0  0.28125 0 0  0.289062 0 0  0.296875 0 0  0.304688 0 0  0.3125 0 0  0.320312 0 0  0.328125 0 0  0.335938 0 0  0.34375 0 0  0.351562 0 0  0.359375 0 0  0.367188 0 0  0.375 0 0  0.382812 0 0  0.390625 0 0  0.398438 0 0  0.40625 0 0  0.414062 0 0  0.421875 0 0  0.429688 0 0  0.4375 0 0  0.445312 0 0  0.453125 0 0  0.460938 0 0  0.46875 0 0  0.476562 0 0  0.484375 0 0  0.492188 0 0  0.5 0 0  0.507812 0 0  0.515625 0 0  0.523438 0 0  0.53125 0 0  0.539062 0 0  0.546875 0 0  0.554688 0 0  0.5625 0 0  0.570312 0 0  0.578125 0 0  0.585938 0 0  0.59375 0 0  0.601562 0 0  0.609375 0 0  0.617188 0 0  0.625 0 0  0.632812 0 0  0.640625 0 0  0.648438 0 0  0.65625 0 0  0.664062 0 0  0.671875 0 0  0.679688 0 0  0.6875 0 0  0.695312 0 0  0.703125 0 0  0.710938 0 0  0.71875 0 0  0.726562 0 0  0.734375 0 0  0.742188 0 0  0.75 0 0  0.757812 0 0  0.765625 0 0  0.773438 0 0  0.78125 0 0  0.789062 0 0  0.796875 0 0  0.804688 0 0  0.8125 0 0  0.820312 0 0  0.828125 0 0  0.835938 0 0  0.84375 0 0  0.851562 0 0  0.859375 0 0  0.867188 0 0  0.875 0 0  0.882812 0 0  0.890625 0 0  0.898438 0 0  0.90625 0 0  0.914062 0 0  0.921875 0 0  0.929688 0 0  0.9375 0 0  0.945312 0 0  0.953125 0 0  0.960938 0 0  0.96875 0 0  0.976562 0 0  0.984375 0 0  0.992188 0 0  1 0 0  0 0.0078125 0  0.0078125 0.0078125 0  0.015625 0.0078125 0  0.0234375 0.0078125 0  0.03125 0.0078125 0  0.0390625 0.0078125 0  0.046875 0.0078125 0  0.0546875 0.0078125 0  0.0625 0.0078125 0  0.0703125 0.0078125 0  0.078125 0.0078125 0  0.0859375 0.0078125 0  0.09375 0.0078125 0  0.101562 0.0078125 0  0.109375 0.0078125 0  0.117188 0.0078125 0  0.125 0.0078125 0  0.132812 0.0078125 0  0.140625 0.0078125 0  0.148438 0.0078125 0  0.15625 0.0078125 0  0.164062 0.0078125 0  0.171875 0.0078125 0  0.179688 0.0078125 0  0.1875 0.0078125 0  0.195312 0.0078125 0  0.203125 0.0078125 0  0.210938 0.0078125 0  0.21875 0.0078125 0  0.226562 0.0078125 0  0.234375 0.0078125 0  0.242188 0.0078125 0  0.25 0.0078125 0  0.257812 0.0078125 0  0.265625 0.0078125 0  0.273438 0.0078125 0  0.28125 0.0078125 0  0.289062 0.0078125 0  0.296875 0.0078125 0  0.304688 0.0078125 0  0.3125 0.0078125 0  0.320312 0.0078125 0  0.328125 0.0078125 0  0.335938 0.0078125 0  0.34375 0.0078125 0  0.351562 0.0078125 0  0.359375 0.0078125 0  0.367188 0.0078125 0  0.375 0.0078125 0  0.382812 0.0078125 0  0.390625 0.0078125 0  0.398438 0.0078125 0  0.40625 0.0078125 0  0.414062 0.0078125 0  0.421875 0.0078125 0  0.429688 0.0078125 0  0.4375 0.0078125 0  0.445312 0.0078125 0  0.453125 0.0078125 0  0.460938 0.0078125 0  0.46875 0.0078125 0  0.476562 0.0078125 0  0.484375 0.0078125 0  0.492188 0.0078125 0  0.5 0.0078125 0  0.507812 0.0078125 0  0.515625 0.0078125 0  0.523438 0.0078125 0  0.53125 0.0078125 0  0.539062 0.0078125 0  0.546875 0.0078125 0  0.554688 0.0078125 0  0.5625 0.0078125 0  0.570312 0.0078125 0  0.578125 0.0078125 0  0.585938 0.0078125 0  0.59375 0.0078125 0  0.601562 0.0078125 0  0.609375 0.0078125 0  0.617188 0.0078125 0  0.625 0.0078125 0  0.632812 0.0078125 0  0.640625 0.0078125 0  0.648438 0.0078125 0  0.65625 0.0078125 0  0.664062 0.0078125 0  0.671875 0.0078125 0  0.679688 0.0078125 0  0.6875 0.0078125 0  0.695312 0.0078125 0  0.703125 0.0078125 0  0.710938 0.0078125 0  0.71875 0.0078125 0  0.726562 0.0078125 0  0.734375 0.0078125 0  0.742188 0.0078125 0  0.75 0.0078125 0  0.757812 0.0078125 0  0.765625 0.0078125 0  0.773438 0.0078125 0  0.78125 0.0078125 0  0.789062 0.0078125 0  0.796875 0.0078125 0  0.804688 0.0078125 0  0.8125 0.0078125 0  0.820312 0.0078125 0  0.828125 0.0078125 0  0.835938 0.0078125 0  0.84375 0.0078125 0  0.851562 0.0078125 0  0.859375 0.0078125 0  0.867188 0.0078125 0  0.875 0.0078125 0  0.882812 0.0078125 0  0.890625 0.0078125 0  0.898438 0.0078125 0  0.90625 0.0078125 0  0.914062 0.0078125 0  0.921875 0.0078125 0  0.929688 0.0078125 0  0.9375 0.0078125 0  0.945312 0.0078125 0  0.953125 0.0078125 0  0.960938 0.0078125 0  0.96875 0.0078125 0  0.976562 0.0078125 0  0.984375 0.0078125 0  0.992188 0.0078125 0  1 0.0078125 0  0 0.015625 0  0.0078125 0.015625 0  0.015625 0.015625 0  0.0234375 0.015625 0  0.03125 0.015625 0  0.0390625 0.015625 0  0.046875 0.015625 0  0.0546875 0.015625 0  0.0625 0.015625 0  0.0703125 0.015625 0  0.078125 0.015625 0  0.0859375 0.015625 0  0.09375 0.015625 0  0.101562 0.015625 0  0.109375 0.015625 0  0.117188 0.015625 0  0.125 0.015625 0  0.132812 0.015625 0  0.140625 0.015625 0  0.148438 0.015625 0  0.15625 0.015625 0  0.164062 0.015625 0  0.171875 0.015625 0  0.179688 0.015625 0  0.1875 0.015625 0  0.195312 0.015625 0  0.203125 0.015625 0  0.210938 0.015625 0  0.21875 0.015625 0  0.226562 0.015625 0  0.234375 0.015625 0  0.242188 0.015625 0  0.25 0.015625 0  0.257812 0.015625 0  0.265625 0.015625 0  0.273438 0.015625 0  0.28125 0.015625 0  0.289062 0.015625 0  0.296875 0.015625 0  0.304688 0.015625 0  0.3125 0.015625 0  0.320312 0.015625 0  0.328125 0.015625 0  0.335938 0.015625 0  0.34375 0.015625 0  0.351562 0.015625 0  0.359375 0.015625 0  0.367188 0.015625 0  0.375 0.015625 0  0.382812 0.015625 0  0.390625 0.015625 0  0.398438 0.015625 0  0.40625 0.015625 0  0.414062 0.015625 0  0.421875 0.015625 0  0.429688 0.015625 0  0.4375 0.015625 0  0.445312 0.015625 0  0.453125 0.015625 0  0.460938 0.015625 0  0.46875 0.015625 0  0.476562 0.015625 0  0.484375 0.015625 0  0.492188 0.015625 0  0.5 0.015625 0  0.507812 0.015625 0  0.515625 0.015625 0  0.523438 0.015625 0  0.53125 0.015625 0  0.539062 0.015625 0  0.546875 0.015625 0  0.554688 0.015625 0  0.5625 0.015625 0  0.570312 0.015625 0  0.578125 0.015625 0  0.585938 0.015625 0  0.59375 0.015625 0  0.601562 0.015625 0  0.609375 0.015625 0  0.617188 0.015625 0  0.625 0.015625 0  0.632812 0.015625 0  0.640625 0.015625 0  0.648438 0.015625 0  0.65625 0.015625 0  0.664062 0.015625 0  0.671875 0.015625 0  0.679688 0.015625 0  0.6875 0.015625 0  0.695312 0.015625 0  0.703125 0.015625 0  0.710938 0.015625 0  0.71875 0.015625 0  0.726562 0.015625 0  0.734375 0.015625 0  0.742188 0.015625 0  0.75 0.015625 0  0.757812 0.015625 0  0.765625 0.015625 0  0.773438 0.015625 0  0.78125 0.015625 0  0.789062 0.015625 0  0.796875 0.015625 0  0.804688 0.015625 0  0.8125 0.015625 0  0.820312 0.015625 0  0.828125 0.015625 0  0.835938 0.015625 0  0.84375 0.015625 0  0.851562 0.015625 0  0.859375 0.015625 0  0.867188 0.015625 0  0.875 0.015625 0  0.882812 0.015625 0  0.890625 0.015625 0  0.898438 0.015625 0  0.90625 0.015625 0  0.914062 0.015625 0  0.921875 0.015625 0  0.929688 0.015625 0  0.9375 0.015625 0  0.945312 0.015625 0  0.953125 0.015625 0  0.960938 0.015625 0  0.96875 0.015625 0  0.976562 0.015625 0  0.984375 0.015625 0  0.992188 0.015625 0  1 0.015625 0  0 0.0234375 0  0.0078125 0.0234375 0  0.015625 0.0234375 0  0.0234375 0.0234375 0  0.03125 0.0234375 0  0.0390625 0.0234375 0  0.046875 0.0234375 0  0.0546875 0.0234375 0  0.0625 0.0234375 0  0.0703125 0.0234375 0  0.078125 0.0234375 0  0.0859375 0.0234375 0  0.09375 0.0234375 0  0.101562 0.0234375 0  0.109375 0.0234375 0  0.117188 0.0234375 0  0.125 0.0234375 0  0.132812 0.0234375 0  0.140625 0.0234375 0  0.148438 0.0234375 0  0.15625 0.0234375 0  0.164062 0.0234375 0  0.171875 0.0234375 0  0.179688 0.0234375 0  0.1875 0.0234375 0  0.195312 0.0234375 0  0.203125 0.0234375 0  0.210938 0.0234375 0  0.21875 0.0234375 0  0.226562 0.0234375 0  0.234375 0.0234375 0  0.242188 0.0234375 0  0.25 0.0234375 0  0.257812 0.0234375 0  0.265625 0.0234375 0  0.273438 0.0234375 0  0.28125 0.0234375 0  0.289062 0.0234375 0  0.296875 0.0234375 0  0.304688 0.0234375 0  0.3125 0.0234375 0  0.320312 0.0234375 0  0.328125 0.0234375 0  0.335938 0.0234375 0  0.34375 0.0234375 0  0.351562 0.0234375 0  0.359375 0.0234375 0  0.367188 0.0234375 0  0.375 0.0234375 0  0.382812 0.0234375 0  0.390625 0.0234375 0  0.398438 0.0234375 0  0.40625 0.0234375 0  0.414062 0.0234375 0  0.421875 0.0234375 0  0.429688 0.0234375 0  0.4375 0.0234375 0  0.445312 0.0234375 0  0.453125 0.0234375 0  0.460938 0.0234375 0  0.46875 0.0234375 0  0.476562 0.0234375 0  0.484375 0.0234375 0  0.492188 0.0234375 0  0.5 0.0234375 0  0.507812 0.0234375 0  0.515625 0.0234375 0  0.523438 0.0234375 0  0.53125 0.0234375 0  0.539062 0.0234375 0  0.546875 0.0234375 0  0.554688 0.0234375 0  0.5625 0.0234375 0  0.570312 0.0234375 0  0.578125 0.0234375 0  0.585938 0.0234375 0  0.59375 0.0234375 0  0.601562 0.0234375 0  0.609375 0.0234375 0  0.617188 0.0234375 0  0.625 0.0234375 0  0.632812 0.0234375 0  0.640625 0.0234375 0  0.648438 0.0234375 0  0.65625 0.0234375 0  0.664062 0.0234375 0  0.671875 0.0234375 0  0.679688 0.0234375 0  0.6875 0.0234375 0  0.695312 0.0234375 0  0.703125 0.0234375 0  0.710938 0.0234375 0  0.71875 0.0234375 0  0.726562 0.0234375 0  0.734375 0.0234375 0  0.742188 0.0234375 0  0.75 0.0234375 0  0.757812 0.0234375 0  0.765625 0.0234375 0  0.773438 0.0234375 0  0.78125 0.0234375 0  0.789062 0.0234375 0  0.796875 0.0234375 0  0.804688 0.0234375 0  0.8125 0.0234375 0  0.820312 0.0234375 0  0.828125 0.0234375 0  0.835938 0.0234375 0  0.84375 0.0234375 0  0.851562 0.0234375 0  0.859375 0.0234375 0  0.867188 0.0234375 0  0.875 0.0234375 0  0.882812 0.0234375 0  0.890625 0.0234375 0  0.898438 0.0234375 0  0.90625 0.0234375 0  0.914062 0.0234375 0  0.921875 0.0234375 0  0.929688 0.0234375 0  0.9375 0.0234375 0  0.945312 0.0234
[...]
<PointData  Vectors="u"> 
<DataArray  type="Float32"  Name="u"  NumberOfComponents="3" format="ascii">0.000000e+00 0.000000e+00 0.000000e+00  0.000000e+00 0.000000e+00 0.000000e+00  0.000000e+00 0.000000e+00 0.000000e+00  0.000000e+00 0.000000e+00 0.000000e+00  0.000000e+00 0.000000e+00 0.000000e+00  0.000000e+00 0.000000e+00 0.000000e+00  0.000000e+00 0.000000e+00 0.000000e+00  0.000000e+00 0.000000e+00 0.000000e+00  0.000000e+00 0.000000e+00 0.000000e+00  0.000000e+00 0.000000e+00 0.000000e+00  0.000000e+00 0.000000e+00 0.000000e+00  0.000000e+00 0.000000e+00 0.000000e+00  0.000000e+00 0.000000e+00 0.000000e+00  0.000000e+00 0.000000e+00 0.000000e+00  0.000000e+00 0.000000e+00 0.000000e+00  0.000000e+00 0.000000e+00 0.000000e+00  0.000000e+00 0.000000e+00 0.000000e+00  0.000000e+00 0.000000e+00 0.000000e+00  0.000000e+00 0.000000e+00 0.000000e+00  0.000000e+00 0.000000e+00 0.000000e+00  0.000000e+00 0.000000e+00 0.000000e+00  0.000000e+00 0.000000e+00 0.000000e+00  0.000000e+00 0.000000e+00 0.000000e+00  0.000000e+00 0.000000e+00 0.000000e+00  0.000000e+00 0.000000e+00 0.000000e+00  0.000000e+00 0.000000e+00 0.000000e+00  0.000000e+00 0.000000e+00 0.000000e+00  0.000000e+00 0.000000e+00 0.000000e+00  0.000000e+00 0.000000e+00 0.000000e+00  0.000000e+00 0.000000e+00 0.000000e+00  0.000000e+00 0.000000e+00 0.000000e+00  0.000000e+00 0.000000e+00 0.000000e+00  0.000000e+00 0.000000e+00 0.000000e+00  0.000000e+00 0.000000e+00 0.000000e+00  0.000000e+00 0.000000e+00 0.000000e+00  0.000000e+00 0.000000e+00 0.000000e+00  0.000000e+00 0.000000e+00 0.000000e+00  0.000000e+00 0.000000e+00 0.000000e+00  0.000000e+00 0.000000e+00 0.000000e+00  0.000000e+00 0.000000e+00 0.000000e+00  0.000000e+00 0.000000e+00 0.000000e+00  0.000000e+00 0.000000e+00 0.000000e+00  0.000000e+00 0.000000e+00 0.000000e+00  0.000000e+00 0.000000e+00 0.000000e+00  0.000000e+00 0.000000e+00 0.000000e+00  0.000000e+00 0.000000e+00 0.000000e+00  0.000000e+00 0.000000e+00 0.000000e+00  0.000000e+00 0.000000e+00 0.000000e+00  0.000000e+00 0.000000e+00 0.000000e+00  0.000000e+00 0.000000e+00 0.000000e+00  0.000000e+00 0.000000e+00 0.000000e+00  0.000000e+00 0.000000e+00 0.000000e+00  0.000000e+00 0.000000e+00 0.000000e+00  0.000000e+00 0.000000e+00 0.000000e+00  0.000000e+00 0.000000e+00 0.000000e+00  0.000000e+00 0.000000e+00 0.000000e+00  0.000000e+00 0.000000e+00 0.000000e+00  0.000000e+00 0.000000e+00 0.000000e+00  0.000000e+00 0.000000e+00 0.000000e+00  0.000000e+00 0.000000e+00 0.000000e+00  0.000000e+00 0.000000e+00 0.000000e+00  0.000000e+00 0.000000e+00 0.000000e+00  0.000000e+00 0.000000e+00 0.000000e+00  0.000000e+00 0.000000e+00 0.000000e+00  0.000000e+00 0.000000e+00 0.000000e+00  0.000000e+00 0.000000e+00 0.000000e+00  0.000000e+00 0.000000e+00 0.000000e+00  0.000000e+00 0.000000e+00 0.000000e+00  0.000000e+00 0.000000e+00 0.000000e+00  0.000000e+00 0.000000e+00 0.000000e+00  0.000000e+00 0.000000e+00 0.000000e+00  0.000000e+00 0.000000e+00 0.000000e+00  0.000000e+00 0.000000e+00 0.000000e+00  0.000000e+00 0.000000e+00 0.000000e+00  0.000000e+00 0.000000e+00 0.000000e+00  0.000000e+00 0.000000e+00 0.000000e+00  0.000000e+00 0.000000e+00 0.000000e+00  0.000000e+00 0.000000e+00 0.000000e+00  0.000000e+00 0.000000e+00 0.000000e+00  0.000000e+00 0.000000e+00 0.000000e+00  0.000000e+00 0.000000e+00 0.000000e+00  0.000000e+00 0.000000e+00 0.000000e+00  0.000000e+00 0.000000e+00 0.000000e+00  0.000000e+00 0.000000e+00 0.000000e+00  0.000000e+00 0.000000e+00 0.000000e+00  0.000000e+00 0.000000e+00 0.000000e+00  0.000000e+00 0.000000e+00 0.000000e+00  0.000000e+00 0.000000e+00 0.000000e+00  0.000000e+00 0.000000e+00 0.000000e+00  0.000000e+00 0.000000e+00 0.000000e+00  0.000000e+00 0.000000e+00 0.000000e+00  0.000000e+00 0.000000e+00 0.000000e+00  0.000000e+00 0.000000e+00 0.000000e+00  0.000000e+00 0.000000e+00 0.000000e+00  0.000000e+00 0.000000e+00 0.000000e+00  0.000000e+00 0.000000e+00 0.000000e+00  0.000000e+00 0.000000e+00 0.000000e+00  0.000000e+00 0.000000e+00 0.000000e+00  0.000000e+00 0.000000e+00 0.000000e+00  0.000000e+00 0.000000e+00 0.000000e+00  0.000000e+00 0.000000e+00 0.000000e+00  0.000000e+00 0.000000e+00 0.000000e+00  0.000000e+00 0.000000e+00 0.000000e+00  0.000000e+00 0.000000e+00 0.000000e+00  0.000000e+00 0.000000e+00 0.000000e+00  0.000000e+00 0.000000e+00 0.000000e+00  0.000000e+00 0.000000e+00 0.000000e+00  0.000000e+00 0.000000e+00 0.000000e+00  0.000000e+00 0.000000e+00 0.000000e+00  0.000000e+00 0.000000e+00 0.000000e+00  0.000000e+00 0.000000e+00 0.000000e+00  0.000000e+00 0.000000e+00 0.000000e+00  0.000000e+00 0.000000e+00 0.000000e+00  0.000000e+00 0.000000e+00 0.000000e+00  0.000000e+00 0.000000e+00 0.000000e+00  0.000000e+00 0.000000e+00 0.000000e+00  0.000000e+00 0.000000e+00 0.000000e+00  0.000000e+00 0.000000e+00 0.000000e+00  0.000000e+00 0.000000e+00 0.000000e+00  0.000000e+00 0.000000e+00 0.000000e+00  0.000000e+00 0.000000e+00 0.000000e+00  0.000000e+00 0.000000e+00 0.000000e+00  0.000000e+00 0.000000e+00 0.000000e+00  0.000000e+00 0.000000e+00 0.000000e+00  0.000000e+00 0.000000e+00 0.000000e+00  0.000000e+00 0.000000e+00 0.000000e+00  0.000000e+00 0.000000e+00 0.000000e+00  0.000000e+00 0.000000e+00 0.000000e+00  0.000000e+00 0.000000e+00 0.000000e+00  0.000000e+00 0.000000e+00 0.000000e+00  5.670473e-06 -5.669106e-06 0.000000e+00  1.989432e-05 -9.599214e-06 0.000000e+00  3.782192e-05 -1.026358e-05 0.000000e+00  5.447519e-05 -8.640428e-06 0.000000e+00  6.646300e-05 -5.515059e-06 0.000000e+00  7.148611e-05 -1.445063e-06 0.000000e+00  6.809780e-05 3.188155e-06 0.000000e+00  5.544516e-05 8.124808e-06 0.000000e+00  3.309267e-05 1.318451e-05 0.000000e+00  9.012470e-07 1.824081e-05 0.000000e+00  -4.105728e-05 2.320482e-05 0.000000e+00  -9.256154e-05 2.801458e-05 0.000000e+00  -1.532816e-04 3.262774e-05 0.000000e+00  -2.228337e-04 3.701814e-05 0.000000e+00  -3.007701e-04 4.116969e-05 0.000000e+00  -3.866147e-04 4.507542e-05 0.000000e+00  -4.799039e-04 4.873633e-05 0.000000e+00  -5.801822e-04 5.215854e-05 0.000000e+00  -6.869816e-04 5.535102e-05 0.000000e+00  -7.998500e-04 5.832528e-05 0.000000e+00  -9.183862e-04 6.109483e-05 0.000000e+00  -1.042216e-03 6.367318e-05 0.000000e+00  -1.170959e-03 6.607214e-05 0.000000e+00  -1.304252e-03 6.830176e-05 0.000000e+00  -1.441782e-03 7.037014e-05 0.000000e+00  -1.583250e-03 7.228212e-05 0.000000e+00  -1.728329e-03 7.403855e-05 0.000000e+00  -1.876686e-03 7.563678e-05 0.000000e+00  -2.028018e-03 7.707118e-05 0.000000e+00  -2.182011e-03 7.833307e-05 0.000000e+00  -2.338293e-03 7.941096e-05 0.000000e+00  -2.496466e-03 8.029181e-05 0.000000e+00  -2.656147e-03 8.096203e-05 0.000000e+00  -2.816930e-03 8.140809e-05 0.000000e+00  -2.978341e-03 8.161727e-05 0.000000e+00  -3.139885e-03 8.157867e-05 0.000000e+00  -3.301086e-03 8.128377e-05 0.000000e+00  -3.461458e-03 8.072665e-05 0.000000e+00  -3.620463e-03 7.990449e-05 0.000000e+00  -3.777562e-03 7.881763e-05 0.000000e+00  -3.932258e-03 7.746908e-05 0.000000e+00  -4.084064e-03 7.586441e-05 0.000000e+00  -4.232463e-03 7.401210e-05 0.000000e+00  -4.376962e-03 7.192297e-05 0.000000e+00  -4.517124e-03 6.960924e-05 0.000000e+00  -4.652538e-03 6.708479e-05 0.000000e+00  -4.782786e-03 6.436573e-05 0.000000e+00  -4.907485e-03 6.146974e-05 0.000000e+00  -5.026320e-03 5.841511e-05 0.000000e+00  -5.139009e-03 5.522124e-05 0.000000e+00  -5.245282e-03 5.190939e-05 0.000000e+00  -5.344913e-03 4.850171e-05 0.000000e+00  -5.437746e-03 4.502003e-05 0.000000e+00  -5.523665e-03 4.148635e-05 0.000000e+00  -5.602574e-03 3.792347e-05 0.000000e+00  -5.674426e-03 3.435375e-05 0.000000e+00  -5.739234e-03 3.079780e-05 0.000000e+00  -5.797047e-03 2.727516e-05 0.000000e+00  -5.847938e-03 2.380497e-05 0.000000e+00  -5.892016e-03 2.040484e-05 0.000000e+00  -5.929438e-03 1.708993e-05 0.000000e+00  -5.960383e-03 1.387374e-05 0.000000e+00  -5.985049e-03 1.076898e-05 0.000000e+00  -6.003658e-03 7.786598e-06 0.000000e+00  -6.016459e-03 4.935090e-06 0.000000e+00  -6.023712e-03 2.221291e-06 0.000000e+00  -6.025686e-03 -3.490091e-07 0.000000e+00  -6.022664e-03 -2.771965e-06 0.000000e+00  -6.014931e-03 -5.046410e-06 0.000000e+00  -6.002771e-03 -7.173364e-06 0.000000e+00  -5.986468e-03 -9.155842e-06 0.000000e+00  -5.966297e-03 -1.099988e-05 0.000000e+00  -5.942511e-03 -1.271540e-05 0.000000e+00  -5.915341e-03 -1.431625e-05 0.000000e+00  -5.884993e-03 -1.582036e-05 0.000000e+00  -5.851633e-03 -1.725094e-05 0.000000e+00  -5.815367e-03 -1.863730e-05 0.000000e+00  -5.776240e-03 -2.001495e-05 0.000000e+00  -5.734229e-03 -2.142550e-05 0.000000e+00  -5.689230e-03 -2.291688e-05 0.000000e+00  -5.641026e-03 -2.454312e-05 0.000000e+00  -5.589294e-03 -2.636283e-05 0.000000e+00  -5.533608e-03 -2.843684e-05 0.000000e+00  -5.473430e-03 -3.082586e-05 0.000000e+00  -5.408094e-03 -3.358789e-05 0.000000e+00  -5.336829e-03 -3.677388e-05 0.000000e+00  -5.258798e-03 -4.042246e-05 0.000000e+00  -5.173110e-03 -4.455604e-05 0.000000e+00  -5.078831e-03 -4.917796e-05 0.000000e+00  -4.975040e-03 -5.426817e-05 0.000000e+00  -4.860912e-03 -5.977934e-05 0.000000e+00  -4.735740e-03 -6.563697e-05 0.000000e+00  -4.598956e-03 -7.174191e-05 0.000000e+00  -4.450201e-03 -7.797165e-05 0.000000e+00  -4.289408e-03 -8.418297e-05 0.000000e+00  -4.116800e-03 -9.021964e-05 0.000000e+00  -3.932861e-03 -9.592122e-05 0.000000e+00  -3.738377e-03 -1.011291e-04 0.000000e+00  -3.534475e-03 -1.056932e-04 0.000000e+00  -3.322560e-03 -1.094804e-04 0.000000e+00  -3.104212e-03 -1.123822e-04 0.000000e+00  -2.881193e-03 -1.143168e-04 0.000000e+00  -2.655450e-03 -1.152321e-04 0.000000e+00  -2.429001e-03 -1.151068e-04 0.000000e+00  -2.203821e-03 -1.139493e-04 0.000000e+00  -1.981844e-03 -1.117939e-04 0.000000e+00  -1.764978e-03 -1.086974e-04 0.000000e+00  -1.555002e-03 -1.047345e-04 0.000000e+00  -1.353488e-03 -9.999038e-05 0.000000e+00  -1.161844e-03 -9.455633e-05 0.000000e+00  -9.813504e-04 -8.852601e-05 0.000000e+00  -8.131052e-04 -8.199035e-05 0.000000e+00  -6.579938e-04 -7.503230e-05 0.000000e+00  -5.167532e-04 -6.772640e-05 0.000000e+00  -3.900183e-04 -6.014039e-05 0.000000e+00  -2.782907e-04 -5.233488e-05 0.000000e+00  -1.819252e-04 -4.436438e-05 0.000000e+00  -1.011697e-04 -3.628477e-05 0.000000e+00  -3.616775e-05 -2.816385e-05 0.000000e+00  1.310324e-05 -2.009159e-05 0.000000e+00  4.689828e-05 -1.219614e-05 0.000000e+00  6.578274e-05 -4.673471e-06 0.000000e+00  7.079583e-05 2.167679e-06 0.000000e+00  6.371684e-05 7.838417e-06 0.000000e+00  4.744264e-05 1.155857e-05 0.000000e+00  2.661022e-05 1.212543e-05 0.000000e+00  7.895367e-06 7.896847e-06 0.000000e+00  0.000000e+00 0.000000e+00 0.000000e+00  0.000000e+00 0.000000e+00 0.000000e+00  9.616633e-06 -1.990349e-05 0.000000e+00  3.063753e-05 -3.060096e-05 0.000000e+00  5.456808e-05 -3.162372e-05 0.000000e+00  7.469797e-05 -2.518491e-05 0.000000e+00  8.592384e-05 -1.353484e-05 0.000000e+00  8.451601e-05 1.563096e-06 0.000000e+00  6.794520e-05 1.882222e-05 0.000000e+00  3.460246e-05 3.731552e-05 0.000000e+00  -1.641776e-05 5.637481e-05 0.000000e+00  -8.549413e-05 7.551764e-05 0.000000e+00  -1.726136e-04 9.439630e-05 0.000000e+00  -2.774747e-04 1.127627e-04 0.000000e+00  -3.995589e-04 1.304429e-04 0.000000e+00  -5.382342e-04 1.473248e-04 0.000000e+00  -6.927307e-04 1.633360e-04 0.000000e+00  -8.622110e-04 1.784393e-04 0.000000e+00  -1.045850e-03 1.926292e-04 0.000000e+00  -1.242824e-03 2.059202e-04 0.000000e+00  -1.452272e-03 2.183389e-04 0.000000e+00  -1.673353e-03 2.299219e-04 0.000000e+00  -1.905313e-03 2.407148e-04 0.000000e+00  -2.147442e-03 2.507635e-04 0.000000e+00  -2.399002e-03 2.601086e-04 0.000000e+00  -2.659289e-03 2.687849e-04 0.000000e+00  -2.927687e-03 2.768207e-04 0.000000e+00  -3.203606e-03 2.842331e-04 0.000000e+00  -3.486393e-03 2.910248e-04 0.000000e+00  -3.775391e-03 2.971863e-04 0.000000e+00  -4.070001e-03 3.026976e-04 0.000000e+00  -4.369605e-03 3.075277e-04 0.000000e+00  -4.673475e-03 3.116356e-04 0.000000e+00  -4.980845e-03 3.149744e-04 0.000000e+00  -5.290981e-03 3.174954e-04 0.000000e+00  -5.603109e-03 3.191498e-04 0.000000e+00  -5.916330e-03 3.198914e-04 0.000000e+00  -6.229706e-03 3.196803e-04 0.000000e+00  -6.542348e-03 3.184851e-04 0.000000e+00  -6.853340e-03 3.162835e-04 0.000000e+00  -7.161668e-03 3.130642e-04 0.000000e+00  -7.466318e-03 3.088276e-04 0.000000e+00  -7.766354e-03 3.035839e-04 0.000000e+00  -8.060852e-03 2.973528e-04 0.000000e+00  -8.348837e-03 2.901651e-04 0.000000e+00  -8.629365e-03 2.820604e-04 0.000000e+00  -8.901606e-03 2.730843e-04 0.000000e+00  -9.164773e-03 2.632887e-04 0.000000e+00  -9.418061e-03 2.527345e-04 0.000000e+00  -9.660732e-03 2.414890e-04 0.000000e+00  -9.892174e-03 2.296217e-04 0.000000e+00  -1.011184e-02 2.172067e-04 0.000000e+00  -1.031921e-02 2.043256e-04 0.000000e+00  -1.051382e-02 1.910630e-04 0.000000e+00  -1.069538e-02 1.775024e-04 0.000000e+00  -1.086363e-02 1.637282e-04 0.000000e+00  -1.101839e-02 1.498274e-04 0.000000e+00  -1.115953e-02 1.358857e-04 0.000000e+00  -1.128706e-02 1.219819e-04 0.000000e+00  -1.140105e-02 1.081908e-04 0.000000e+00  -1.150162e-02 9.458582e-05 0.000000e+00  -1.158895e-02 8.123454e-05 0.000000e+00  -1.166330e-02 6.819505e-05 0.000000e+00  -1.172501e-02 5.551932e-05 0.000000e+00  -1.177440e-02 4.325616e-05 0.000000e+00  -1.181189e-02 3.144772e-05 0.000000e+00  -1.183791e-02 2.012648e-05 0.000000e+00  -1.185293e-02 9.318455e-06 0.000000e+00  -1.185744e-02 -9.544295e-07 0.000000e+00  -1.185194e-02 -1.067791e-05 0.000000e+00  -1.183694e-02 -1.984828e-05 0.000000e+00  -1.181295e-02 -2.847041e-05 0.000000e+00  -1.178048e-02 -3.655683e-05 0.000000e+00  -1.174002e-02 -4.413167e-05 0.000000e+00  -1.169201e-02 -5.123405e-05 0.000000e+00  -1.163686e-02 -5.791771e-05 0.000000e+00  -1.157491e-02 -6.425156e-05 0.000000e+00  -1.150647e-02 -7.032370e-05 0.000000e+00  -1.143169e-02 -7.624467e-05 0.000000e+00  -1.135063e-02 -8.214724e-05 0.000000e+00  -1.126324e-02 -8.818552e-05 0.000000e+00  -1.116932e-02 -9.453562e-05 0.000000e+00  -1.106846e-02 -1.013948e-04 0.000000e+00  -1.096007e-02 -1.089757e-04 0.000000e+00  -1.084340e-02 -1.174968e-04 0.000000e+00  -1.071751e-02 -1.271745e-04 0.000000e+00  -1.058123e-02 -1.382136e-04 0.000000e+00  -1.043322e-02 -1.507920e-04 0.000000e+00  -1.027207e-02 -1.650407e-04 0.000000e+00  -1.009625e-02 -1.810312e-04 0.000000e+00  -9.904198e-03 -1.987653e-04 0.000000e+00  -9.694378e-03 -2.181600e-04 0.000000e+00  -9.465439e-03 -2.390337e-04 0.000000e+00  -9.216252e-03 -2.611075e-04 0.000000e+00  -8.945929e-03 -2.840146e-04 0.000000e+00  -8.653948e-03 -3.073052e-04 0.000000e+00  -8.340306e-03 -3.304558e-04 0.000000e+00  -8.005503e-03 -3.528972e-04 0.000000e+00  -7.650483e-03 -3.740462e-04 0.000000e+00  -7.276707e-03 -3.933266e-04 0.000000e+00  -6.886236e-03 -4.101923e-04 0.000000e+00  -6.481608e-03 -4.241596e-04 0.000000e+00  -6.065659e-03 -4.348316e-04 0.000000e+00  -5.641538e-03 -4.419085e-04 0.000000e+00  -5.212729e-03 -4.451960e-04 0.000000e+00  -4.782849e-03 -4.446122e-04 0.000000e+00  -4.355434e-03 -4.401816e-04 0.000000e+00  -3.933961e-03 -4.320228e-04 0.000000e+00  -3.521876e-03 -4.203377e-04 0.000000e+00  -3.122411e-03 -4.053938e-04 0.000000e+00  -2.738434e-03 -3.874994e-04 0.000000e+00  -2.372531e-03 -3.669863e-04 0.000000e+00  -2.027072e-03 -3.441987e-04 0.000000e+00  -1.704105e-03 -3.194739e-04 0.000000e+00  -1.405291e-03 -2.931237e-04 0.000000e+00  -1.132016e-03 -2.654334e-04 0.000000e+00  -8.854744e-04 -2.366682e-04 0.000000e+00  -6.665996e-04 -2.070723e-04 0.000000e+00  -4.760281e-04 -1.768726e-04 0.000000e+00  -3.141692e-04 -1.463067e-04 0.000000e+00  -1.812074e-04 -1.156613e-04 0.000000e+00  -7.698401e-05 -8.530798e-05 0.000000e+00  -8.772101e-07 -5.575705e-05 0.000000e+00  4.831570e-05 -2.775449e-05 0.000000e+00  7.261817e-05 -2.417246e-06 0.000000e+00  7.524030e-05 1.859250e-05 0.000000e+00  6.101192e-05 3.283463e-05 0.000000e+00  3.686158e-05 3.686442e-05 0.000000e+00  1.211989e-05 2.660790e-05 0.000000e+00  0.000000e+00 0.000000e+00 0.000000e+00  0.000000e+00 0.000000e+00 0.000000e+00  1.032172e-05 -3.789081e-05 0.000000e+00  3.178415e-05 -5.457276e-05 0.000000e+00  5.357884e-05 -5.336887e-05 0.000000e+00  6.794461e-05 -3.833754e-05 0.000000e+00  6.893751e-05 -1.327445e-05 0.000000e+00  5.209273e-05 1.870910e-05 0.000000e+00  1.422563e-05 5.520719e-05 0.000000e+00  -4.679471e-05 9.440242e-05 0.000000e+00  -1.322454e-04 1.349360e-04 0.000000e+00  -2.427317e-04 1.757973e-04 0.000000e+00  -3.783372e-04 2.162396e-04 0.000000e+00  -5.387476e-04 2.557176e-04 0.000000e+00  -7.233379e-04 2.938399e-04 0.000000e+00  -9.313162e-04 3.303465e-04 0.000000e+00  -1.161679e-03 3.650614e-04 0.000000e+00  -1.413311e-03 3.978861e-04 0.000000e+00  -1.685105e-03 4.287902e-04 0.000000e+00  -1.975940e-03 4.577888e-04 0.000000e+00  -2.284625e-03 4.849228e-04 0.000000e+00  -2.609982e-03 5.102574e-04 0.000000e+00  -2.950950e-03 5.338776e-04 0.000000e+00  -3.306516e-03 5.558714e-04 0.000000e+00  -3.675621e-03 5.763168e-04 0.000000e+00  -4.057236e-03 5.952814e-04 0.000000e+00  -4.450463e-03 6.128208e-04 0.000000e+00  -4.854434e-03 6.289687e-04 0.000000e+00  -5.268184e-03 6.437298e-04 0.000000e+00  -5.690746e-03 6.570849e-04 0.000000e+00  -6.121238e-03 6.689939e-04 0.000000e+00  -6.558757e-03 6.793946e-04 0.000000e+00  -7.002246e-03 6.882040e-04 0.000000e+00  -7.450595e-03 6.953276e-04 0.000000e+00  -7.902755e-03 7.006666e-04 0.000000e+00  -8.357622e-03 7.041213e-04 0.000000e+00  -8.813919e-03 7.055968e-04 0.000000e+00  -9.270315e-03 7.050107e-04 0.000000e+00  -9.725555e-03 7.022969e-04 0.000000e+00  -1.017835e-02 6.974074e-04 0.000000e+00  -1.062725e-02 6.903173e-04 0.000000e+00  -1.107084e-02 6.810249e-04 0.000000e+00  -1.150778e-02 6.695488e-04 0.000000e+00  -1.193675e-02 6.559280e-04 0.000000e+00  -1.235638e-02 6.402251e-04 0.000000e+00  -1.276529e-02 6.225223e-04 0.000000e+00  -1.316231e-02 6.029146e-04 0.000000e+00  -1.354630e-02 5.815117e-04 0.000000e+00  -1.391609e-02 5.584432e-04 0.000000e+00  -1.427062e-02 5.338528e-04 0.000000e+00  -1.460898e-02 5.078900e-04 0.000000e+00  -1.493039e-02 4.807144e-04 0.000000e+00  -1.523406e-02 4.525015e-04 0.000000e+00  -1.551934e-02 4.234342e-04 0.000000e+00  -1.578575e-02 3.936926e-04 0.000000e+00  -1.603293e-02 3.634581e-04 0.000000e+00  -1.626056e-02 3.329190e-04 0.000000e+00  -1.646845e-02 3.022596e-04 0.000000e+00  -1.665658e-02 2.716500e-04 0.000000e+00  -1.682501e-02 2.412511e-04 0.000000e+00  -1.697388e-02 2.112213e-04 0.000000e+00  -1.710341e-02 1.817065e-04 0.000000e+00  -1.721394e-02 1.528322e-04 0.000000e+00  -1.730590e-02 1.247104e-04 0.000000e+00  -1.737974e-02 9.744687e-05 0.000000e+00  -1.743599e-02 7.113266e-05 0.000000e+00  -1.747525e-02 4.583775e-05 0.000000e+00  -1.749813e-02 2.161796e-05 0.000000e+00  -1.750528e-02 -1.479809e-06 0.000000e+00  -1.749740e-02 -2.342546e-05 0.000000e+00  -1.747516e-02 -4.421225e-05 0.000000e+00  -1.743926e-02 -6.385221e-05 0.000000e+00  -1.739036e-02 -8.237383e-05 0.000000e+00  -1.732913e-02 -9.983063e-05 0.000000e+00  -1.725615e-02 -1.163084e-04 0.000000e+00  -1.717196e-02 -1.319239e-04 0.000000e+00  -1.707702e-02 -1.468252e-04 0.000000e+00  -1.697171e-02 -1.611997e-04 0.000000e+00  -1.685622e-02 -1.752816e-04 0.000000e+00  -1.673063e-02 -1.893497e-04 0.000000e+00  -1.659483e-02 -2.037248e-04 0.000000e+00  -1.644855e-02 -2.187710e-04 0.000000e+00  -1.629122e-02 -2.348936e-04 0.000000e+00  -1.612208e-02 -2.525261e-04 0.000000e+00  -1.594010e-02 -2.721105e-04 0.000000e+00  -1.574406e-02 -2.940801e-04 0.000000e+00  -1.553244e-02 -3.188417e-04 0.000000e+00  -1.530351e-02 -3.467428e-04 0.000000e+00  -1.505545e-02 -3.780321e-04 0.000000e+00  -1.478636e-02 -4.128339e-04 0.000000e+00  -1.449426e-02 -4.511299e-04 0.000000e+00  -1.417723e-02 -4.927285e-04 0.000000e+00  -1.383366e-02 -5.372377e-04 0.000000e+00  -1.346219e-02 -5.840690e-04 0.000000e+00  -1.306182e-02 -6.324588e-04 0.000000e+00  -1.263201e-02 -6.814776e-04 0.000000e+00  -1.217292e-02 -7.300489e-04 0.000000e+00  -1.168537e-02 -7.770060e-04 0.000000e+00  -1.117072e-02 -8.211560e-04 0.000000e+00  -1.063103e-02 -8.613213e-0