<?xml version="1.0"?>
<VTKFile type="UnstructuredGrid"  version="0.1"  >
<UnstructuredGrid>
<Piece  NumberOfPoints="16641" NumberOfCells="32768">
<Points>
<DataArray  type="Float32"  NumberOfComponents="3"  format="ascii">0 0 0  0.0078125 0 0  0.015625 0 0  0.0234375 0 0  0.03125 0 0  0.0390625 0 0  0.046875 0 0  0.0546875 0 0  0.0625 0 0  0.0703125 0 0  0.078125 0 0  0.0859375 0 0  0.09375 0 0  0.101562 0 0  0.109375 0 0  0.117188 0 0  0.125 0 0  0.132812 0 0  0.140625 0 0  0.148438 0 0  0.15625 0 0  0.164062 0 0  0.171875 0 0  0.179688 0 0  0.1875 0 0  0.195312 0 0  0.203125 0 0  0.210938 0 0  0.21875 0 0  0.226562 0 0  0.234375 0 0  0.242188 0 0  0.25 0 0  0.257812 0 0  0.265625 0 0  0.273438 0 0  0.28125 0 0  0.289062 0 0  0.296875 0 0  0.304688 0 0  0.3125 0 0  0.320312 0 0  0.328125 0 0  0.335938 0 0  0.34375 0 0  0.351562 0 0  0.359375 0 0  0.367188 0 0  0.375 0 0  0.382812 0 0  0.390625 0 0  0.398438 0 0  0.40625 0 0  0.414062 0 0  0.421875 0 0  0.429688 0 0  0.4375 0 0  0.445312 0 0  0.453125 0 0  0.460938 0 0  0.46875 0 0  0.476562 0 0  0.484375 0 0  0.492188 0 0  0.5 0 0  0.507812 0 0  0.515625 0 0  0.523438 0 0  0.53125 0 0  0.539062 0 0  0.546875 0 0  0.554688 0 0  0.5625 0 0  0.570312 0 0  0.578125 0 0  0.585938 0 0  0.59375 0 0  0.601562 0 0  0.609375 0 0  0.617188 0 0  0.625 0 0  0.632812 0 0  0.640625 0 0  0.648438 0 0  0.65625 0 0  0.664062 0 0  0.671875 0 0  0.679688 0 0  0.6875 0 0  0.695312 0 0  0.703125 0 0  0.710938 0 0  0.71875 0 0  0.726562 0 0  0.734375 0 0  0.742188 0 0  0.75 0 0  0.757812 0 0  0.765625 0 0  0.773438 0 0  0.78125 0 0  0.789062 0 0  0.796875 0 0  0.804688 0 0  0.8125 0 0  0.820312 0 0  0.828125 0 0  0.835938 0 0  0.84375 0 0  0.851562 0 0  0.859375 0 0  0.867188 0 0  0.875 0 0  0.882812 0 0  0.890625 0 0  0.898438 0 0  0.90625 0 0  0.914062 0 0  0.921875 0 0  0.929688 0 0  0.9375 0 0  0.945312 0 0  0.953125 0 0  0.960938 0 0  0.96875 0 0  0.976562 0 0  0.984375 0 0  0.992188 0 0  1 0 0  0 0.0078125 0  0.0078125 0.0078125 0  0.015625 0.0078125 0  0.0234375 0.0078125 0  0.03125 0.0078125 0  0.0390625 0.0078125 0  0.046875 0.0078125 0  0.0546875 0.0078125 0  0.0625 0.0078125 0  0.0703125 0.0078125 0  0.078125 0.0078125 0  0.0859375 0.0078125 0  0.09375 0.0078125 0  0.101562 0.0078125 0  0.109375 0.0078125 0  0.117188 0.0078125 0  0.125 0.0078125 0  0.132812 0.0078125 0  0.140625 0.0078125 0  0.148438 0.0078125 0  0.15625 0.0078125 0  0.164062 0.0078125 0  0.171875 0.0078125 0  0.179688 0.0078125 0  0.1875 0.0078125 0  0.195312 0.0078125 0  0.203125 0.0078125 0  0.210938 0.0078125 0  0.21875 0.0078125 0  0.226562 0.0078125 0  0.234375 0.0078125 0  0.242188 0.0078125 0  0.25 0.0078125 0  0.257812 0.0078125 0  0.265625 0.0078125 0  0.273438 0.0078125 0  0.28125 0.0078125 0  0.289062 0.0078125 0  0.296875 0.0078125 0  0.304688 0.0078125 0  0.3125 0.0078125 0  0.320312 0.0078125 0  0.328125 0.0078125 0  0.335938 0.0078125 0  0.34375 0.0078125 0  0.351562 0.0078125 0  0.359375 0.0078125 0  0.367188 0.0078125 0  0.375 0.0078125 0  0.382812 0.0078125 0  0.390625 0.0078125 0  0.398438 0.0078125 0  0.40625 0.0078125 0  0.414062 0.0078125 0  0.421875 0.0078125 0  0.429688 0.0078125 0  0.4375 0.0078125 0  0.445312 0.0078125 0  0.453125 0.0078125 0  0.460938 0.0078125 0  0.46875 0.0078125 0  0.476562 0.0078125 0  0.484375 0.0078125 0  0.492188 0.0078125 0  0.5 0.0078125 0  0.507812 0.0078125 0  0.515625 0.0078125 0  0.523438 0.0078125 0  0.53125 0.0078125 0  0.539062 0.0078125 0  0.546875 0.0078125 0  0.554688 0.0078125 0  0.5625 0.0078125 0  0.570312 0.0078125 0  0.578125 0.0078125 0  0.585938 0.0078125 0  0.59375 0.0078125 0  0.601562 0.0078125 0  0.609375 0.0078125 0  0.617188 0.0078125 0  0.625 0.0078125 0  0.632812 0.0078125 0  0.640625 0.0078125 0  0.648438 0.0078125 0  0.65625 0.0078125 0  0.664062 0.0078125 0  0.671875 0.0078125 0  0.679688 0.0078125 0  0.6875 0.0078125 0  0.695312 0.0078125 0  0.703125 0.0078125 0  0.710938 0.0078125 0  0.71875 0.0078125 0  0.726562 0.0078125 0  0.734375 0.0078125 0  0.742188 0.0078125 0  0.75 0.0078125 0  0.757812 0.0078125 0  0.765625 0.0078125 0  0.773438 0.0078125 0  0.78125 0.0078125 0  0.789062 0.0078125 0  0.796875 0.0078125 0  0.804688 0.0078125 0  0.8125 0.0078125 0  0.820312 0.0078125 0  0.828125 0.0078125 0  0.835938 0.0078125 0  0.84375 0.0078125 0  0.851562 0.0078125 0  0.859375 0.0078125 0  0.867188 0.0078125 0  0.875 0.0078125 0  0.882812 0.0078125 0  0.890625 0.0078125 0  0.898438 0.0078125 0  0.90625 0.0078125 0  0.914062 0.0078125 0  0.921875 0.0078125 0  0.929688 0.0078125 0  0.9375 0.0078125 0  0.945312 0.0078125 0  0.953125 0.0078125 0  0.960938 0.0078125 0  0.96875 0.0078125 0  0.976562 0.0078125 0  0.984375 0.0078125 0  0.992188 0.0078125 0  1 0.0078125 0  0 0.015625 0  0.0078125 0.015625 0  0.015625 0.015625 0  0.0234375 0.015625 0  0.03125 0.015625 0  0.0390625 0.015625 0  0.046875 0.015625 0  0.0546875 0.015625 0  0.0625 0.015625 0  0.0703125 0.015625 0  0.078125 0.015625 0  0.0859375 0.015625 0  0.09375 0.015625 0  0.101562 0.015625 0  0.109375 0.015625 0  0.117188 0.015625 0  0.125 0.015625 0  0.132812 0.015625 0  0.140625 0.015625 0  0.148438 0.015625 0  0.15625 0.015625 0  0.164062 0.015625 0  0.171875 0.015625 0  0.179688 0.015625 0  0.1875 0.015625 0  0.195312 0.015625 0  0.203125 0.015625 0  0.210938 0.015625 0  0.21875 0.015625 0  0.226562 0.015625 0  0.234375 0.015625 0  0.242188 0.015625 0  0.25 0.015625 0  0.257812 0.015625 0  0.265625 0.015625 0  0.273438 0.015625 0  0.28125 0.015625 0  0.289062 0.015625 0  0.296875 0.015625 0  0.304688 0.015625 0  0.3125 0.015625 0  0.320312 0.015625 0  0.328125 0.015625 0  0.335938 0.015625 0  0.34375 0.015625 0  0.351562 0.015625 0  0.359375 0.015625 0  0.367188 0.015625 0  0.375 0.015625 0  0.382812 0.015625 0  0.390625 0.015625 0  0.398438 0.015625 0  0.40625 0.015625 0  0.414062 0.015625 0  0.421875 0.015625 0  0.429688 0.015625 0  0.4375 0.015625 0  0.445312 0.015625 0  0.453125 0.015625 0  0.460938 0.015625 0  0.46875 0.015625 0  0.476562 0.015625 0  0.484375 0.015625 0  0.492188 0.015625 0  0.5 0.015625 0  0.507812 0.015625 0  0.515625 0.015625 0  0.523438 0.015625 0  0.53125 0.015625 0  0.539062 0.015625 0  0.546875 0.015625 0  0.554688 0.015625 0  0.5625 0.015625 0  0.570312 0.015625 0  0.578125 0.015625 0  0.585938 0.015625 0  0.59375 0.015625 0  0.601562 0.015625 0  0.609375 0.015625 0  0.617188 0.015625 0  0.625 0.015625 0  0.632812 0.015625 0  0.640625 0.015625 0  0.648438 0.015625 0  0.65625 0.015625 0  0.664062 0.015625 0  0.671875 0.015625 0  0.679688 0.015625 0  0.6875 0.015625 0  0.695312 0.015625 0  0.703125 0.015625 0  0.710938 0.015625 0  0.71875 0.015625 0  0.726562 0.015625 0  0.734375 0.015625 0  0.742188 0.015625 0  0.75 0.015625 0  0.757812 0.015625 0  0.765625 0.015625 0  0.773438 0.015625 0  0.78125 0.015625 0  0.789062 0.015625 0  0.796875 0.015625 0  0.804688 0.015625 0  0.8125 0.015625 0  0.820312 0.015625 0  0.828125 0.015625 0  0.835938 0.015625 0  0.84375 0.015625 0  0.851562 0.015625 0  0.859375 0.015625 0  0.867188 0.015625 0  0.875 0.015625 0  0.882812 0.015625 0  0.890625 0.015625 0  0.898438 0.015625 0  0.90625 0.015625 0  0.914062 0.015625 0  0.921875 0.015625 0  0.929688 0.015625 0  0.9375 0.015625 0  0.945312 0.015625 0  0.953125 0.015625 0  0.960938 0.015625 0  0.96875 0.015625 0  0.976562 0.015625 0  0.984375 0.015625 0  0.992188 0.015625 0  1 0.015625 0  0 0.0234375 0  0.0078125 0.0234375 0  0.015625 0.0234375 0  0.0234375 0.0234375 0  0.03125 0.0234375 0  0.0390625 0.0234375 0  0.046875 0.0234375 0  0.0546875 0.0234375 0  0.0625 0.0234375 0  0.0703125 0.0234375 0  0.078125 0.0234375 0  0.0859375 0.0234375 0  0.09375 0.0234375 0  0.101562 0.0234375 0  0.109375 0.0234375 0  0.117188 0.0234375 0  0.125 0.0234375 0  0.132812 0.0234375 0  0.140625 0.0234375 0  0.148438 0.0234375 0  0.15625 0.0234375 0  0.164062 0.0234375 0  0.171875 0.0234375 0  0.179688 0.0234375 0  0.1875 0.0234375 0  0.195312 0.0234375 0  0.203125 0.0234375 0  0.210938 0.0234375 0  0.21875 0.0234375 0  0.226562 0.0234375 0  0.234375 0.0234375 0  0.242188 0.0234375 0  0.25 0.0234375 0  0.257812 0.0234375 0  0.265625 0.0234375 0  0.273438 0.0234375 0  0.28125 0.0234375 0  0.289062 0.0234375 0  0.296875 0.0234375 0  0.304688 0.0234375 0  0.3125 0.0234375 0  0.320312 0.0234375 0  0.328125 0.0234375 0  0.335938 0.0234375 0  0.34375 0.0234375 0  0.351562 0.0234375 0  0.359375 0.0234375 0  0.367188 0.0234375 0  0.375 0.0234375 0  0.382812 0.0234375 0  0.390625 0.0234375 0  0.398438 0.0234375 0  0.40625 0.0234375 0  0.414062 0.0234375 0  0.421875 0.0234375 0  0.429688 0.0234375 0  0.4375 0.0234375 0  0.445312 0.0234375 0  0.453125 0.0234375 0  0.460938 0.0234375 0  0.46875 0.0234375 0  0.476562 0.0234375 0  0.484375 0.0234375 0  0.492188 0.0234375 0  0.5 0.0234375 0  0.507812 0.0234375 0  0.515625 0.0234375 0  0.523438 0.0234375 0  0.53125 0.0234375 0  0.539062 0.0234375 0  0.546875 0.0234375 0  0.554688 0.0234375 0  0.5625 0.0234375 0  0.570312 0.0234375 0  0.578125 0.0234375 0  0.585938 0.0234375 0  0.59375 0.0234375 0  0.601562 0.0234375 0  0.609375 0.0234375 0  0.617188 0.0234375 0  0.625 0.0234375 0  0.632812 0.0234375 0  0.640625 0.0234375 0  0.648438 0.0234375 0  0.65625 0.0234375 0  0.664062 0.0234375 0  0.671875 0.0234375 0  0.679688 0.0234375 0  0.6875 0.0234375 0  0.695312 0.0234375 0  0.703125 0.0234375 0  0.710938 0.0234375 0  0.71875 0.0234375 0  0.726562 0.0234375 0  0.734375 0.0234375 0  0.742188 0.0234375 0  0.75 0.0234375 0  0.757812 0.0234375 0  0.765625 0.0234375 0  0.773438 0.0234375 0  0.78125 0.0234375 0  0.789062 0.0234375 0  0.796875 0.0234375 0  0.804688 0.0234375 0  0.8125 0.0234375 0  0.820312 0.0234375 0  0.828125 0.0234375 0  0.835938 0.0234375 0  0.84375 0.0234375 0  0.851562 0.0234375 0  0.859375 0.0234375 0  0.867188 0.0234375 0  0.875 0.0234375 0  0.882812 0.0234375 0  0.890625 0.0234375 0  0.898438 0.0234375 0  0.90625 0.0234375 0  0.914062 0.0234375 0  0.921875 0.0234375 0  0.929688 0.0234375 0  0.9375 0.0234375 0  0.945312 0.0234
[...]
<PointData  Vectors="u"> 
<DataArray  type="Float32"  Name="u"  NumberOfComponents="3" format="ascii">0.000000e+00 0.000000e+00 0.000000e+00  0.000000e+00 0.000000e+00 0.000000e+00  0.000000e+00 0.000000e+00 0.000000e+00  0.000000e+00 0.000000e+00 0.000000e+00  0.000000e+00 0.000000e+00 0.000000e+00  0.000000e+00 0.000000e+00 0.000000e+00  0.000000e+00 0.000000e+00 0.000000e+00  0.000000e+00 0.000000e+00 0.000000e+00  0.000000e+00 0.000000e+00 0.000000e+00  0.000000e+00 0.000000e+00 0.000000e+00  0.000000e+00 0.000000e+00 0.000000e+00  0.000000e+00 0.000000e+00 0.000000e+00  0.000000e+00 0.000000e+00 0.000000e+00  0.000000e+00 0.000000e+00 0.000000e+00  0.000000e+00 0.000000e+00 0.000000e+00  0.000000e+00 0.000000e+00 0.000000e+00  0.000000e+00 0.000000e+00 0.000000e+00  0.000000e+00 0.000000e+00 0.000000e+00  0.000000e+00 0.000000e+00 0.000000e+00  0.000000e+00 0.000000e+00 0.000000e+00  0.000000e+00 0.000000e+00 0.000000e+00  0.000000e+00 0.000000e+00 0.000000e+00  0.000000e+00 0.000000e+00 0.000000e+00  0.000000e+00 0.000000e+00 0.000000e+00  0.000000e+00 0.000000e+00 0.000000e+00  0.000000e+00 0.000000e+00 0.000000e+00  0.000000e+00 0.000000e+00 0.000000e+00  0.000000e+00 0.000000e+00 0.000000e+00  0.000000e+00 0.000000e+00 0.000000e+00  0.000000e+00 0.000000e+00 0.000000e+00  0.000000e+00 0.000000e+00 0.000000e+00  0.000000e+00 0.000000e+00 0.000000e+00  0.000000e+00 0.000000e+00 0.000000e+00  0.000000e+00 0.000000e+00 0.000000e+00  0.000000e+00 0.000000e+00 0.000000e+00  0.000000e+00 0.000000e+00 0.000000e+00  0.000000e+00 0.000000e+00 0.000000e+00  0.000000e+00 0.000000e+00 0.000000e+00  0.000000e+00 0.000000e+00 0.000000e+00  0.000000e+00 0.000000e+00 0.000000e+00  0.000000e+00 0.000000e+00 0.000000e+00  0.000000e+00 0.000000e+00 0.000000e+00  0.000000e+00 0.000000e+00 0.000000e+00  0.000000e+00 0.000000e+00 0.000000e+00  0.000000e+00 0.000000e+00 0.000000e+00  0.000000e+00 0.000000e+00 0.000000e+00  0.000000e+00 0.000000e+00 0.000000e+00  0.000000e+00 0.000000e+00 0.000000e+00  0.000000e+00 0.000000e+00 0.000000e+00  0.000000e+00 0.000000e+00 0.000000e+00  0.000000e+00 0.000000e+00 0.000000e+00  0.000000e+00 0.000000e+00 0.000000e+00  0.000000e+00 0.000000e+00 0.000000e+00  0.000000e+00 0.000000e+00 0.000000e+00  0.000000e+00 0.000000e+00 0.000000e+00  0.000000e+00 0.000000e+00 0.000000e+00  0.000000e+00 0.000000e+00 0.000000e+00  0.000000e+00 0.000000e+00 0.000000e+00  0.000000e+00 0.000000e+00 0.000000e+00  0.000000e+00 0.000000e+00 0.000000e+00  0.000000e+00 0.000000e+00 0.000000e+00  0.000000e+00 0.000000e+00 0.000000e+00  0.000000e+00 0.000000e+00 0.000000e+00  0.000000e+00 0.000000e+00 0.000000e+00  0.000000e+00 0.000000e+00 0.000000e+00  0.000000e+00 0.000000e+00 0.000000e+00  0.000000e+00 0.000000e+00 0.000000e+00  0.000000e+00 0.000000e+00 0.000000e+00  0.000000e+00 0.000000e+00 0.000000e+00  0.000000e+00 0.000000e+00 0.000000e+00  0.000000e+00 0.000000e+00 0.000000e+00  0.000000e+00 0.000000e+00 0.000000e+00  0.000000e+00 0.000000e+00 0.000000e+00  0.000000e+00 0.000000e+00 0.000000e+00  0.000000e+00 0.000000e+00 0.000000e+00  0.000000e+00 0.000000e+00 0.000000e+00  0.000000e+00 0.000000e+00 0.000000e+00  0.000000e+00 0.000000e+00 0.000000e+00  0.000000e+00 0.000000e+00 0.000000e+00  0.000000e+00 0.000000e+00 0.000000e+00  0.000000e+00 0.000000e+00 0.000000e+00  0.000000e+00 0.000000e+00 0.000000e+00  0.000000e+00 0.000000e+00 0.000000e+00  0.000000e+00 0.000000e+00 0.000000e+00  0.000000e+00 0.000000e+00 0.000000e+00  0.000000e+00 0.000000e+00 0.000000e+00  0.000000e+00 0.000000e+00 0.000000e+00  0.000000e+00 0.000000e+00 0.000000e+00  0.000000e+00 0.000000e+00 0.000000e+00  0.000000e+00 0.000000e+00 0.000000e+00  0.000000e+00 0.000000e+00 0.000000e+00  0.000000e+00 0.000000e+00 0.000000e+00  0.000000e+00 0.000000e+00 0.000000e+00  0.000000e+00 0.000000e+00 0.000000e+00  0.000000e+00 0.000000e+00 0.000000e+00  0.000000e+00 0.000000e+00 0.000000e+00  0.000000e+00 0.000000e+00 0.000000e+00  0.000000e+00 0.000000e+00 0.000000e+00  0.000000e+00 0.000000e+00 0.000000e+00  0.000000e+00 0.000000e+00 0.000000e+00  0.000000e+00 0.000000e+00 0.000000e+00  0.000000e+00 0.000000e+00 0.000000e+00  0.000000e+00 0.000000e+00 0.000000e+00  0.000000e+00 0.000000e+00 0.000000e+00  0.000000e+00 0.000000e+00 0.000000e+00  0.000000e+00 0.000000e+00 0.000000e+00  0.000000e+00 0.000000e+00 0.000000e+00  0.000000e+00 0.000000e+00 0.000000e+00  0.000000e+00 0.000000e+00 0.000000e+00  0.000000e+00 0.000000e+00 0.000000e+00  0.000000e+00 0.000000e+00 0.000000e+00  0.000000e+00 0.000000e+00 0.000000e+00  0.000000e+00 0.000000e+00 0.000000e+00  0.000000e+00 0.000000e+00 0.000000e+00  0.000000e+00 0.000000e+00 0.000000e+00  0.000000e+00 0.000000e+00 0.000000e+00  0.000000e+00 0.000000e+00 0.000000e+00  0.000000e+00 0.000000e+00 0.000000e+00  0.000000e+00 0.000000e+00 0.000000e+00  0.000000e+00 0.000000e+00 0.000000e+00  0.000000e+00 0.000000e+00 0.000000e+00  0.000000e+00 0.000000e+00 0.000000e+00  0.000000e+00 0.000000e+00 0.000000e+00  0.000000e+00 0.000000e+00 0.000000e+00  0.000000e+00 0.000000e+00 0.000000e+00  0.000000e+00 0.000000e+00 0.000000e+00  0.000000e+00 0.000000e+00 0.000000e+00  0.000000e+00 0.000000e+00 0.000000e+00  0.000000e+00 0.000000e+00 0.000000e+00  0.000000e+00 0.000000e+00 0.000000e+00  5.664960e-06 -5.664667e-06 0.000000e+00  2.017389e-05 -9.840173e-06 0.000000e+00  3.888991e-05 -1.079106e-05 0.000000e+00  5.683442e-05 -9.423331e-06 0.000000e+00  7.053566e-05 -6.495958e-06 0.000000e+00  7.757764e-05 -2.555513e-06 0.000000e+00  7.638034e-05 2.021082e-06 0.000000e+00  6.595084e-05 6.975349e-06 0.000000e+00  4.571221e-05 1.212611e-05 0.000000e+00  1.538678e-05 1.734431e-05 0.000000e+00  -2.508583e-05 2.253671e-05 0.000000e+00  -7.560644e-05 2.763520e-05 0.000000e+00  -1.359537e-04 3.258938e-05 0.000000e+00  -2.058353e-04 3.736334e-05 0.000000e+00  -2.848743e-04 4.192943e-05 0.000000e+00  -3.726413e-04 4.626750e-05 0.000000e+00  -4.686935e-04 5.036429e-05 0.000000e+00  -5.725678e-04 5.421080e-05 0.000000e+00  -6.837585e-04 5.780042e-05 0.000000e+00  -8.017458e-04 6.112929e-05 0.000000e+00  -9.260329e-04 6.419645e-05 0.000000e+00  -1.056124e-03 6.700237e-05 0.000000e+00  -1.191493e-03 6.954789e-05 0.000000e+00  -1.331609e-03 7.183483e-05 0.000000e+00  -1.475986e-03 7.386618e-05 0.000000e+00  -1.624143e-03 7.564528e-05 0.000000e+00  -1.775565e-03 7.717521e-05 0.000000e+00  -1.929746e-03 7.845938e-05 0.000000e+00  -2.086224e-03 7.950167e-05 0.000000e+00  -2.244545e-03 8.030598e-05 0.000000e+00  -2.404222e-03 8.087608e-05 0.000000e+00  -2.564776e-03 8.121596e-05 0.000000e+00  -2.725776e-03 8.132983e-05 0.000000e+00  -2.886801e-03 8.122196e-05 0.000000e+00  -3.047394e-03 8.089676e-05 0.000000e+00  -3.207111e-03 8.035887e-05 0.000000e+00  -3.365556e-03 7.961297e-05 0.000000e+00  -3.522341e-03 7.866376e-05 0.000000e+00  -3.677049e-03 7.751628e-05 0.000000e+00  -3.829272e-03 7.617577e-05 0.000000e+00  -3.978654e-03 7.464722e-05 0.000000e+00  -4.124845e-03 7.293564e-05 0.000000e+00  -4.267470e-03 7.104654e-05 0.000000e+00  -4.406163e-03 6.898563e-05 0.000000e+00  -4.540610e-03 6.675824e-05 0.000000e+00  -4.670502e-03 6.436978e-05 0.000000e+00  -4.795509e-03 6.182647e-05 0.000000e+00  -4.915315e-03 5.913484e-05 0.000000e+00  -5.029650e-03 5.630104e-05 0.000000e+00  -5.138252e-03 5.333143e-05 0.000000e+00  -5.240844e-03 5.023351e-05 0.000000e+00  -5.337169e-03 4.701518e-05 0.000000e+00  -5.427008e-03 4.368393e-05 0.000000e+00  -5.510158e-03 4.024757e-05 0.000000e+00  -5.586407e-03 3.671516e-05 0.000000e+00  -5.655565e-03 3.309621e-05 0.000000e+00  -5.717481e-03 2.939964e-05 0.000000e+00  -5.772017e-03 2.563467e-05 0.000000e+00  -5.819039e-03 2.181177e-05 0.000000e+00  -5.858439e-03 1.794168e-05 0.000000e+00  -5.890139e-03 1.403437e-05 0.000000e+00  -5.914078e-03 1.009995e-05 0.000000e+00  -5.930210e-03 6.149606e-06 0.000000e+00  -5.938511e-03 2.194571e-06 0.000000e+00  -5.938985e-03 -1.754993e-06 0.000000e+00  -5.931652e-03 -5.689065e-06 0.000000e+00  -5.916550e-03 -9.596834e-06 0.000000e+00  -5.893746e-03 -1.346781e-05 0.000000e+00  -5.863317e-03 -1.729293e-05 0.000000e+00  -5.825358e-03 -2.106363e-05 0.000000e+00  -5.779988e-03 -2.477098e-05 0.000000e+00  -5.727346e-03 -2.840679e-05 0.000000e+00  -5.667573e-03 -3.196457e-05 0.000000e+00  -5.600820e-03 -3.543869e-05 0.000000e+00  -5.527264e-03 -3.882350e-05 0.000000e+00  -5.447097e-03 -4.211427e-05 0.000000e+00  -5.360498e-03 -4.530807e-05 0.000000e+00  -5.267648e-03 -4.840272e-05 0.000000e+00  -5.168757e-03 -5.139600e-05 0.000000e+00  -5.064041e-03 -5.428632e-05 0.000000e+00  -4.953691e-03 -5.707324e-05 0.000000e+00  -4.837899e-03 -5.975646e-05 0.000000e+00  -4.716887e-03 -6.233486e-05 0.000000e+00  -4.590881e-03 -6.480695e-05 0.000000e+00  -4.460080e-03 -6.717114e-05 0.000000e+00  -4.324685e-03 -6.942473e-05 0.000000e+00  -4.184939e-03 -7.156306e-05 0.000000e+00  -4.041098e-03 -7.357983e-05 0.000000e+00  -3.893395e-03 -7.546738e-05 0.000000e+00  -3.742080e-03 -7.721600e-05 0.000000e+00  -3.587461e-03 -7.881341e-05 0.000000e+00  -3.429873e-03 -8.024536e-05 0.000000e+00  -3.269644e-03 -8.149620e-05 0.000000e+00  -3.107129e-03 -8.254861e-05 0.000000e+00  -2.942762e-03 -8.338386e-05 0.000000e+00  -2.777012e-03 -8.398264e-05 0.000000e+00  -2.610346e-03 -8.432575e-05 0.000000e+00  -2.443265e-03 -8.439435e-05 0.000000e+00  -2.276350e-03 -8.417063e-05 0.000000e+00  -2.110215e-03 -8.363855e-05 0.000000e+00  -1.945457e-03 -8.278408e-05 0.000000e+00  -1.782702e-03 -8.159559e-05 0.000000e+00  -1.622636e-03 -8.006448e-05 0.000000e+00  -1.465956e-03 -7.818534e-05 0.000000e+00  -1.313328e-03 -7.595533e-05 0.000000e+00  -1.165420e-03 -7.337447e-05 0.000000e+00  -1.022937e-03 -7.044632e-05 0.000000e+00  -8.865689e-04 -6.717734e-05 0.000000e+00  -7.569565e-04 -6.357587e-05 0.000000e+00  -6.347232e-04 -5.965261e-05 0.000000e+00  -5.204994e-04 -5.542175e-05 0.000000e+00  -4.148807e-04 -5.090042e-05 0.000000e+00  -3.183975e-04 -4.610771e-05 0.000000e+00  -2.315414e-04 -4.106640e-05 0.000000e+00  -1.547745e-04 -3.580547e-05 0.000000e+00  -8.848991e-05 -3.036061e-05 0.000000e+00  -3.298227e-05 -2.477516e-05 0.000000e+00  1.154920e-05 -1.910495e-05 0.000000e+00  4.502283e-05 -1.342501e-05 0.000000e+00  6.753430e-05 -7.835804e-06 0.000000e+00  7.941685e-05 -2.473271e-06 0.000000e+00  8.131298e-05 2.471800e-06 0.000000e+00  7.430125e-05 6.724685e-06 0.000000e+00  6.008069e-05 9.884985e-06 0.000000e+00  4.121186e-05 1.136332e-05 0.000000e+00  2.149311e-05 1.034074e-05 0.000000e+00  5.918222e-06 5.918901e-06 0.000000e+00  0.000000e+00 0.000000e+00 0.000000e+00  0.000000e+00 0.000000e+00 0.000000e+00  9.848516e-06 -2.017865e-05 0.000000e+00  3.174963e-05 -3.172914e-05 0.000000e+00  5.736797e-05 -3.372089e-05 0.000000e+00  7.997475e-05 -2.815754e-05 0.000000e+00  9.434564e-05 -1.719156e-05 0.000000e+00  9.656516e-05 -2.539229e-06 0.000000e+00  8.388288e-05 1.453539e-05 0.000000e+00  5.445027e-05 3.311423e-05 0.000000e+00  7.115474e-06 5.252865e-05 0.000000e+00  -5.874431e-05 7.228799e-05 0.000000e+00  -1.433503e-04 9.202910e-05 0.000000e+00  -2.466181e-04 1.114813e-04 0.000000e+00  -3.682222e-04 1.304408e-04 0.000000e+00  -5.076930e-04 1.487594e-04 0.000000e+00  -6.643862e-04 1.663213e-04 0.000000e+00  -8.375464e-04 1.830406e-04 0.000000e+00  -1.026384e-03 1.988587e-04 0.000000e+00  -1.230062e-03 2.137343e-04 0.000000e+00  -1.447650e-03 2.276362e-04 0.000000e+00  -1.678185e-03 2.405444e-04 0.000000e+00  -1.920743e-03 2.524508e-04 0.000000e+00  -2.174395e-03 2.633535e-04 0.000000e+00  -2.438146e-03 2.732525e-04 0.000000e+00  -2.710994e-03 2.821521e-04 0.000000e+00  -2.992011e-03 2.900617e-04 0.000000e+00  -3.280281e-03 2.969922e-04 0.000000e+00  -3.574823e-03 3.029539e-04 0.000000e+00  -3.874661e-03 3.079587e-04 0.000000e+00  -4.178910e-03 3.120208e-04 0.000000e+00  -4.486696e-03 3.151545e-04 0.000000e+00  -4.797083e-03 3.173735e-04 0.000000e+00  -5.109144e-03 3.186929e-04 0.000000e+00  -5.422049e-03 3.191287e-04 0.000000e+00  -5.734982e-03 3.186971e-04 0.000000e+00  -6.047063e-03 3.174147e-04 0.000000e+00  -6.357428e-03 3.152996e-04 0.000000e+00  -6.665311e-03 3.123696e-04 0.000000e+00  -6.969962e-03 3.086428e-04 0.000000e+00  -7.270570e-03 3.041389e-04 0.000000e+00  -7.566347e-03 2.988779e-04 0.000000e+00  -7.856597e-03 2.928796e-04 0.000000e+00  -8.140645e-03 2.861633e-04 0.000000e+00  -8.417760e-03 2.787506e-04 0.000000e+00  -8.687235e-03 2.706640e-04 0.000000e+00  -8.948456e-03 2.619246e-04 0.000000e+00  -9.200825e-03 2.525536e-04 0.000000e+00  -9.443703e-03 2.425756e-04 0.000000e+00  -9.676476e-03 2.320163e-04 0.000000e+00  -9.898619e-03 2.209002e-04 0.000000e+00  -1.010963e-02 2.092522e-04 0.000000e+00  -1.030896e-02 1.971019e-04 0.000000e+00  -1.049613e-02 1.844805e-04 0.000000e+00  -1.067070e-02 1.714172e-04 0.000000e+00  -1.083229e-02 1.579428e-04 0.000000e+00  -1.098047e-02 1.440928e-04 0.000000e+00  -1.111490e-02 1.299042e-04 0.000000e+00  -1.123527e-02 1.154119e-04 0.000000e+00  -1.134132e-02 1.006518e-04 0.000000e+00  -1.143278e-02 8.566481e-05 0.000000e+00  -1.150945e-02 7.049263e-05 0.000000e+00  -1.157118e-02 5.517403e-05 0.000000e+00  -1.161784e-02 3.974822e-05 0.000000e+00  -1.164935e-02 2.425869e-05 0.000000e+00  -1.166566e-02 8.749008e-06 0.000000e+00  -1.166677e-02 -6.741437e-06 0.000000e+00  -1.165271e-02 -2.217380e-05 0.000000e+00  -1.162356e-02 -3.750612e-05 0.000000e+00  -1.157945e-02 -5.269772e-05 0.000000e+00  -1.152051e-02 -6.771345e-05 0.000000e+00  -1.144693e-02 -8.251999e-05 0.000000e+00  -1.135892e-02 -9.708256e-05 0.000000e+00  -1.125676e-02 -1.113691e-04 0.000000e+00  -1.114071e-02 -1.253543e-04 0.000000e+00  -1.101105e-02 -1.390158e-04 0.000000e+00  -1.086814e-02 -1.523311e-04 0.000000e+00  -1.071232e-02 -1.652810e-04 0.000000e+00  -1.054395e-02 -1.778534e-04 0.000000e+00  -1.036337e-02 -1.900388e-04 0.000000e+00  -1.017100e-02 -2.018272e-04 0.000000e+00  -9.967240e-03 -2.132110e-04 0.000000e+00  -9.752477e-03 -2.241871e-04 0.000000e+00  -9.527083e-03 -2.347527e-04 0.000000e+00  -9.291494e-03 -2.449017e-04 0.000000e+00  -9.046162e-03 -2.546265e-04 0.000000e+00  -8.791482e-03 -2.639195e-04 0.000000e+00  -8.527858e-03 -2.727688e-04 0.000000e+00  -8.255777e-03 -2.811548e-04 0.000000e+00  -7.975751e-03 -2.890521e-04 0.000000e+00  -7.688250e-03 -2.964307e-04 0.000000e+00  -7.393775e-03 -3.032524e-04 0.000000e+00  -7.092941e-03 -3.094700e-04 0.000000e+00  -6.786417e-03 -3.150289e-04 0.000000e+00  -6.474845e-03 -3.198696e-04 0.000000e+00  -6.158928e-03 -3.239267e-04 0.000000e+00  -5.839512e-03 -3.271295e-04 0.000000e+00  -5.517512e-03 -3.294055e-04 0.000000e+00  -5.193829e-03 -3.306828e-04 0.000000e+00  -4.869429e-03 -3.308912e-04 0.000000e+00  -4.545427e-03 -3.299642e-04 0.000000e+00  -4.222992e-03 -3.278424e-04 0.000000e+00  -3.903267e-03 -3.244740e-04 0.000000e+00  -3.587436e-03 -3.198161e-04 0.000000e+00  -3.276799e-03 -3.138377e-04 0.000000e+00  -2.972676e-03 -3.065196e-04 0.000000e+00  -2.676322e-03 -2.978527e-04 0.000000e+00  -2.388993e-03 -2.878389e-04 0.000000e+00  -2.112013e-03 -2.764935e-04 0.000000e+00  -1.846678e-03 -2.638439e-04 0.000000e+00  -1.594183e-03 -2.499244e-04 0.000000e+00  -1.355685e-03 -2.347794e-04 0.000000e+00  -1.132354e-03 -2.184674e-04 0.000000e+00  -9.252874e-04 -2.010590e-04 0.000000e+00  -7.354490e-04 -1.826335e-04 0.000000e+00  -5.637214e-04 -1.632855e-04 0.000000e+00  -4.109233e-04 -1.431347e-04 0.000000e+00  -2.777312e-04 -1.223278e-04 0.000000e+00  -1.646214e-04 -1.010418e-04 0.000000e+00  -7.187694e-05 -7.950201e-05 0.000000e+00  4.496136e-07 -5.800616e-05 0.000000e+00  5.264558e-05 -3.694502e-05 0.000000e+00  8.544106e-05 -1.683443e-05 0.000000e+00  1.001144e-04 1.624501e-06 0.000000e+00  9.867056e-05 1.746384e-05 0.000000e+00  8.407738e-05 2.935203e-05 0.000000e+00  6.051335e-05 3.548783e-05 0.000000e+00  3.359657e-05 3.358377e-05 0.000000e+00  1.034340e-05 2.149509e-05 0.000000e+00  0.000000e+00 0.000000e+00 0.000000e+00  0.000000e+00 0.000000e+00 0.000000e+00  1.082964e-05 -3.893396e-05 0.000000e+00  3.384479e-05 -5.738365e-05 0.000000e+00  5.825717e-05 -5.808183e-05 0.000000e+00  7.622531e-05 -4.475928e-05 0.000000e+00  8.163702e-05 -2.103015e-05 0.000000e+00  6.978856e-05 1.009493e-05 0.000000e+00  3.721026e-05 4.626432e-05 0.000000e+00  -1.854161e-05 8.568554e-05 0.000000e+00  -9.906942e-05 1.270033e-04 0.000000e+00  -2.053034e-04 1.691925e-04 0.000000e+00  -3.376407e-04 2.114757e-04 0.000000e+00  -4.960587e-04 2.532611e-04 0.000000e+00  -6.801919e-04 2.940950e-04 0.000000e+00  -8.894669e-04 3.336414e-04 0.000000e+00  -1.123049e-03 3.716339e-04 0.000000e+00  -1.379934e-03 4.078715e-04 0.000000e+00  -1.659060e-03 4.422130e-04 0.000000e+00  -1.959289e-03 4.745563e-04 0.000000e+00  -2.279336e-03 5.048221e-04 0.000000e+00  -2.617859e-03 5.329570e-04 0.000000e+00  -2.973567e-03 5.589349e-04 0.000000e+00  -3.345156e-03 5.827436e-04 0.000000e+00  -3.731213e-03 6.043766e-04 0.000000e+00  -4.130318e-03 6.238374e-04 0.000000e+00  -4.541147e-03 6.411416e-04 0.000000e+00  -4.962392e-03 6.563089e-04 0.000000e+00  -5.392644e-03 6.693584e-04 0.000000e+00  -5.830503e-03 6.803133e-04 0.000000e+00  -6.274693e-03 6.892020e-04 0.000000e+00  -6.723956e-03 6.960539e-04 0.000000e+00  -7.176938e-03 7.008976e-04 0.000000e+00  -7.632301e-03 7.037647e-04 0.000000e+00  -8.088842e-03 7.046890e-04 0.000000e+00  -8.545380e-03 7.037050e-04 0.000000e+00  -9.000638e-03 7.008487e-04 0.000000e+00  -9.453363e-03 6.961583e-04 0.000000e+00  -9.902443e-03 6.896729e-04 0.000000e+00  -1.034679e-02 6.814315e-04 0.000000e+00  -1.078522e-02 6.714767e-04 0.000000e+00  -1.121659e-02 6.598526e-04 0.000000e+00  -1.163989e-02 6.466019e-04 0.000000e+00  -1.205413e-02 6.317675e-04 0.000000e+00  -1.245826e-02 6.153968e-04 0.000000e+00  -1.285123e-02 5.975394e-04 0.000000e+00  -1.323216e-02 5.782417e-04 0.000000e+00  -1.360018e-02 5.575512e-04 0.000000e+00  -1.395436e-02 5.355222e-04 0.000000e+00  -1.429380e-02 5.122119e-04 0.000000e+00  -1.461774e-02 4.876741e-04 0.000000e+00  -1.492544e-02 4.619648e-04 0.000000e+00  -1.521613e-02 4.351491e-04 0.000000e+00  -1.548909e-02 4.072959e-04 0.000000e+00  -1.574369e-02 3.784700e-04 0.000000e+00  -1.597936e-02 3.487391e-04 0.000000e+00  -1.619552e-02 3.181814e-04 0.000000e+00  -1.639163e-02 2.868784e-04 0.000000e+00  -1.656725e-02 2.549067e-04 0.000000e+00  -1.672202e-02 2.223452e-04 0.000000e+00  -1.685554e-02 1.892831e-04 0.000000e+00  -1.696751e-02 1.558122e-04 0.000000e+00  -1.705771e-02 1.220171e-04 0.000000e+00  -1.712597e-02 8.798358e-05 0.000000e+00  -1.717215e-02 5.380668e-05 0.000000e+00  -1.719617e-02 1.958165e-05 0.000000e+00  -1.719804e-02 -1.460556e-05 0.000000e+00  -1.717781e-02 -4.867014e-05 0.000000e+00  -1.713557e-02 -8.252040e-05 0.000000e+00  -1.707149e-02 -1.160674e-04 0.000000e+00  -1.698579e-02 -1.492343e-04 0.000000e+00  -1.687871e-02 -1.819482e-04 0.000000e+00  -1.675057e-02 -2.141326e-04 0.000000e+00  -1.660175e-02 -2.457171e-04 0.000000e+00  -1.643263e-02 -2.766456e-04 0.000000e+00  -1.624362e-02 -3.068684e-04 0.000000e+00  -1.603521e-02 -3.363350e-04 0.000000e+00  -1.580792e-02 -3.650022e-04 0.000000e+00  -1.556225e-02 -3.928414e-04 0.000000e+00  -1.529871e-02 -4.198299e-04 0.000000e+00  -1.501787e-02 -4.459433e-04 0.000000e+00  -1.472036e-02 -4.711624e-04 0.000000e+00  -1.440673e-02 -4.954773e-04 0.000000e+00  -1.407752e-02 -5.188787e-04 0.000000e+00  -1.373338e-02 -5.413500e-04 0.000000e+00  -1.337497e-02 -5.628716e-04 0.000000e+00  -1.300290e-02 -5.834236e-04 0.000000e+00  -1.261775e-02 -6.029771e-04 0.000000e+00  -1.222027e-02 -6.214872e-04 0.000000e+00  -1.181120e-02 -6.388965e-04 0.000000e+00  -1.139127e-02 -6.551380e-04 0.000000e+00  -1.096121e-02 -6.701284e-04 0.000000e+00  -1.052194e-02 -6.837647e-04 0.000000e+00  -1.007445e-02 -6.959293e-04 0.000000e+00  -9.619687e-03 -7.064948e-04 0.000000e+00  -9.158691e-03 -7.153212e-04 0.000000e+00  -8.692697e-03 -7.222582e-04 0.000000e+00  -8.223039e-03 -7.271523e-04 0.000000e+00  -7.751021e-03 -7.298515e-04 0.000000e+00  -7.278041e-03 -7.302078e-04 