<?xml version="1.0"?>
<VTKFile type="UnstructuredGrid"  version="0.1"  >
<UnstructuredGrid>
<Piece  NumberOfPoints="16641" NumberOfCells="32768">
<Points>
<DataArray  type="Float32"  NumberOfComponents="3"  format="ascii">0 0 0  0.0078125 0 0  0.015625 0 0  0.0234375 0 0  0.03125 0 0  0.0390625 0 0  0.046875 0 0  0.0546875 0 0  0.0625 0 0  0.0703125 0 0  0.078125 0 0  0.0859375 0 0  0.09375 0 0  0.101562 0 0  0.109375 0 0  0.117188 0 0  0.125 0 0  0.132812 0 0  0.140625 0 0  0.148438 0 0  0.15625 0 0  0.164062 0 0  0.171875 0 0  0.179688 0 0  0.1875 0 0  0.195312 0 0  0.203125 0 0  0.210938 0 0  0.21875 0 0  0.226562 0 0  0.234375 0 0  0.242188 0 0  0.25 0 0  0.257812 0 0  0.265625 0 0  0.273438 0 0  0.28125 0 0  0.289062 0 0  0.296875 0 0  0.304688 0 0  0.3125 0 0  0.320312 0 0  0.328125 0 0  0.335938 0 0  0.34375 0 0  0.351562 0 0  0.359375 0 0  0.367188 0 0  0.375 0 0  0.382812 0 0  0.390625 0 0  0.398438 0 0  0.40625 0 0  0.414062 0 0  0.421875 0 0  0.429688 0 0  0.4375 0 0  0.445312 0 0  0.453125 0 0  0.460938 0 0  0.46875 0 0  0.476562 0 0  0.484375 0 0  0.492188 0 0  0.5 0 0  0.507812 0 0  0.515625 0 0  0.523438 0 0  0.53125 0 0  0.539062 0 0  0.546875 0 0  0.554688 0 0  0.5625 0 0  0.570312 0 0  0.578125 0 0  0.585938 0 0  0.59375 0 0  0.601562 0 0  0.609375 0 0  0.617188 0 0  0.625 0 0  0.632812 0 0  0.640625 0 0  0.648438 0 0  0.65625 0 0  0.664062 0 0  0.671875 0 0  0.679688 0 0  0.6875 0 0  0.695312 0 0  0.703125 0 0  0.710938 0 0  0.71875 0 0  0.726562 0 0  0.734375 0 0  0.742188 0 0  0.75 0 0  0.757812 0 0  0.765625 0 0  0.773438 0 0  0.78125 0 0  0.789062 0 0  0.796875 0 0  0.804688 0 0  0.8125 0 0  0.820312 0 0  0.828125 0 0  0.835938 0 0  0.84375 0 0  0.851562 0 0  0.859375 0 0  0.867188 0 0  0.875 0 0  0.882812 0 0  0.890625 0 0  0.898438 0 0  0.90625 0 0  0.914062 0 0  0.921875 0 0  0.929688 0 0  0.9375 0 0  0.945312 0 0  0.953125 0 0  0.960938 0 0  0.96875 0 0  0.976562 0 0  0.984375 0 0  0.992188 0 0  1 0 0  0 0.0078125 0  0.0078125 0.0078125 0  0.015625 0.0078125 0  0.0234375 0.0078125 0  0.03125 0.0078125 0  0.0390625 0.0078125 0  0.046875 0.0078125 0  0.0546875 0.0078125 0  0.0625 0.0078125 0  0.0703125 0.0078125 0  0.078125 0.0078125 0  0.0859375 0.0078125 0  0.09375 0.0078125 0  0.101562 0.0078125 0  0.109375 0.0078125 0  0.117188 0.0078125 0  0.125 0.0078125 0  0.132812 0.0078125 0  0.140625 0.0078125 0  0.148438 0.0078125 0  0.15625 0.0078125 0  0.164062 0.0078125 0  0.171875 0.0078125 0  0.179688 0.0078125 0  0.1875 0.0078125 0  0.195312 0.0078125 0  0.203125 0.0078125 0  0.210938 0.0078125 0  0.21875 0.0078125 0  0.226562 0.0078125 0  0.234375 0.0078125 0  0.242188 0.0078125 0  0.25 0.0078125 0  0.257812 0.0078125 0  0.265625 0.0078125 0  0.273438 0.0078125 0  0.28125 0.0078125 0  0.289062 0.0078125 0  0.296875 0.0078125 0  0.304688 0.0078125 0  0.3125 0.0078125 0  0.320312 0.0078125 0  0.328125 0.0078125 0  0.335938 0.0078125 0  0.34375 0.0078125 0  0.351562 0.0078125 0  0.359375 0.0078125 0  0.367188 0.0078125 0  0.375 0.0078125 0  0.382812 0.0078125 0  0.390625 0.0078125 0  0.398438 0.0078125 0  0.40625 0.0078125 0  0.414062 0.0078125 0  0.421875 0.0078125 0  0.429688 0.0078125 0  0.4375 0.0078125 0  0.445312 0.0078125 0  0.453125 0.0078125 0  0.460938 0.0078125 0  0.46875 0.0078125 0  0.476562 0.0078125 0  0.484375 0.0078125 0  0.492188 0.0078125 0  0.5 0.0078125 0  0.507812 0.0078125 0  0.515625 0.0078125 0  0.523438 0.0078125 0  0.53125 0.0078125 0  0.539062 0.0078125 0  0.546875 0.0078125 0  0.554688 0.0078125 0  0.5625 0.0078125 0  0.570312 0.0078125 0  0.578125 0.0078125 0  0.585938 0.0078125 0  0.59375 0.0078125 0  0.601562 0.0078125 0  0.609375 0.0078125 0  0.617188 0.0078125 0  0.625 0.0078125 0  0.632812 0.0078125 0  0.640625 0.0078125 0  0.648438 0.0078125 0  0.65625 0.0078125 0  0.664062 0.0078125 0  0.671875 0.0078125 0  0.679688 0.0078125 0  0.6875 0.0078125 0  0.695312 0.0078125 0  0.703125 0.0078125 0  0.710938 0.0078125 0  0.71875 0.0078125 0  0.726562 0.0078125 0  0.734375 0.0078125 0  0.742188 0.0078125 0  0.75 0.0078125 0  0.757812 0.0078125 0  0.765625 0.0078125 0  0.773438 0.0078125 0  0.78125 0.0078125 0  0.789062 0.0078125 0  0.796875 0.0078125 0  0.804688 0.0078125 0  0.8125 0.0078125 0  0.820312 0.0078125 0  0.828125 0.0078125 0  0.835938 0.0078125 0  0.84375 0.0078125 0  0.851562 0.0078125 0  0.859375 0.0078125 0  0.867188 0.0078125 0  0.875 0.0078125 0  0.882812 0.0078125 0  0.890625 0.0078125 0  0.898438 0.0078125 0  0.90625 0.0078125 0  0.914062 0.0078125 0  0.921875 0.0078125 0  0.929688 0.0078125 0  0.9375 0.0078125 0  0.945312 0.0078125 0  0.953125 0.0078125 0  0.960938 0.0078125 0  0.96875 0.0078125 0  0.976562 0.0078125 0  0.984375 0.0078125 0  0.992188 0.0078125 0  1 0.0078125 0  0 0.015625 0  0.0078125 0.015625 0  0.015625 0.015625 0  0.0234375 0.015625 0  0.03125 0.015625 0  0.0390625 0.015625 0  0.046875 0.015625 0  0.0546875 0.015625 0  0.0625 0.015625 0  0.0703125 0.015625 0  0.078125 0.015625 0  0.0859375 0.015625 0  0.09375 0.015625 0  0.101562 0.015625 0  0.109375 0.015625 0  0.117188 0.015625 0  0.125 0.015625 0  0.132812 0.015625 0  0.140625 0.015625 0  0.148438 0.015625 0  0.15625 0.015625 0  0.164062 0.015625 0  0.171875 0.015625 0  0.179688 0.015625 0  0.1875 0.015625 0  0.195312 0.015625 0  0.203125 0.015625 0  0.210938 0.015625 0  0.21875 0.015625 0  0.226562 0.015625 0  0.234375 0.015625 0  0.242188 0.015625 0  0.25 0.015625 0  0.257812 0.015625 0  0.265625 0.015625 0  0.273438 0.015625 0  0.28125 0.015625 0  0.289062 0.015625 0  0.296875 0.015625 0  0.304688 0.015625 0  0.3125 0.015625 0  0.320312 0.015625 0  0.328125 0.015625 0  0.335938 0.015625 0  0.34375 0.015625 0  0.351562 0.015625 0  0.359375 0.015625 0  0.367188 0.015625 0  0.375 0.015625 0  0.382812 0.015625 0  0.390625 0.015625 0  0.398438 0.015625 0  0.40625 0.015625 0  0.414062 0.015625 0  0.421875 0.015625 0  0.429688 0.015625 0  0.4375 0.015625 0  0.445312 0.015625 0  0.453125 0.015625 0  0.460938 0.015625 0  0.46875 0.015625 0  0.476562 0.015625 0  0.484375 0.015625 0  0.492188 0.015625 0  0.5 0.015625 0  0.507812 0.015625 0  0.515625 0.015625 0  0.523438 0.015625 0  0.53125 0.015625 0  0.539062 0.015625 0  0.546875 0.015625 0  0.554688 0.015625 0  0.5625 0.015625 0  0.570312 0.015625 0  0.578125 0.015625 0  0.585938 0.015625 0  0.59375 0.015625 0  0.601562 0.015625 0  0.609375 0.015625 0  0.617188 0.015625 0  0.625 0.015625 0  0.632812 0.015625 0  0.640625 0.015625 0  0.648438 0.015625 0  0.65625 0.015625 0  0.664062 0.015625 0  0.671875 0.015625 0  0.679688 0.015625 0  0.6875 0.015625 0  0.695312 0.015625 0  0.703125 0.015625 0  0.710938 0.015625 0  0.71875 0.015625 0  0.726562 0.015625 0  0.734375 0.015625 0  0.742188 0.015625 0  0.75 0.015625 0  0.757812 0.015625 0  0.765625 0.015625 0  0.773438 0.015625 0  0.78125 0.015625 0  0.789062 0.015625 0  0.796875 0.015625 0  0.804688 0.015625 0  0.8125 0.015625 0  0.820312 0.015625 0  0.828125 0.015625 0  0.835938 0.015625 0  0.84375 0.015625 0  0.851562 0.015625 0  0.859375 0.015625 0  0.867188 0.015625 0  0.875 0.015625 0  0.882812 0.015625 0  0.890625 0.015625 0  0.898438 0.015625 0  0.90625 0.015625 0  0.914062 0.015625 0  0.921875 0.015625 0  0.929688 0.015625 0  0.9375 0.015625 0  0.945312 0.015625 0  0.953125 0.015625 0  0.960938 0.015625 0  0.96875 0.015625 0  0.976562 0.015625 0  0.984375 0.015625 0  0.992188 0.015625 0  1 0.015625 0  0 0.0234375 0  0.0078125 0.0234375 0  0.015625 0.0234375 0  0.0234375 0.0234375 0  0.03125 0.0234375 0  0.0390625 0.0234375 0  0.046875 0.0234375 0  0.0546875 0.0234375 0  0.0625 0.0234375 0  0.0703125 0.0234375 0  0.078125 0.0234375 0  0.0859375 0.0234375 0  0.09375 0.0234375 0  0.101562 0.0234375 0  0.109375 0.0234375 0  0.117188 0.0234375 0  0.125 0.0234375 0  0.132812 0.0234375 0  0.140625 0.0234375 0  0.148438 0.0234375 0  0.15625 0.0234375 0  0.164062 0.0234375 0  0.171875 0.0234375 0  0.179688 0.0234375 0  0.1875 0.0234375 0  0.195312 0.0234375 0  0.203125 0.0234375 0  0.210938 0.0234375 0  0.21875 0.0234375 0  0.226562 0.0234375 0  0.234375 0.0234375 0  0.242188 0.0234375 0  0.25 0.0234375 0  0.257812 0.0234375 0  0.265625 0.0234375 0  0.273438 0.0234375 0  0.28125 0.0234375 0  0.289062 0.0234375 0  0.296875 0.0234375 0  0.304688 0.0234375 0  0.3125 0.0234375 0  0.320312 0.0234375 0  0.328125 0.0234375 0  0.335938 0.0234375 0  0.34375 0.0234375 0  0.351562 0.0234375 0  0.359375 0.0234375 0  0.367188 0.0234375 0  0.375 0.0234375 0  0.382812 0.0234375 0  0.390625 0.0234375 0  0.398438 0.0234375 0  0.40625 0.0234375 0  0.414062 0.0234375 0  0.421875 0.0234375 0  0.429688 0.0234375 0  0.4375 0.0234375 0  0.445312 0.0234375 0  0.453125 0.0234375 0  0.460938 0.0234375 0  0.46875 0.0234375 0  0.476562 0.0234375 0  0.484375 0.0234375 0  0.492188 0.0234375 0  0.5 0.0234375 0  0.507812 0.0234375 0  0.515625 0.0234375 0  0.523438 0.0234375 0  0.53125 0.0234375 0  0.539062 0.0234375 0  0.546875 0.0234375 0  0.554688 0.0234375 0  0.5625 0.0234375 0  0.570312 0.0234375 0  0.578125 0.0234375 0  0.585938 0.0234375 0  0.59375 0.0234375 0  0.601562 0.0234375 0  0.609375 0.0234375 0  0.617188 0.0234375 0  0.625 0.0234375 0  0.632812 0.0234375 0  0.640625 0.0234375 0  0.648438 0.0234375 0  0.65625 0.0234375 0  0.664062 0.0234375 0  0.671875 0.0234375 0  0.679688 0.0234375 0  0.6875 0.0234375 0  0.695312 0.0234375 0  0.703125 0.0234375 0  0.710938 0.0234375 0  0.71875 0.0234375 0  0.726562 0.0234375 0  0.734375 0.0234375 0  0.742188 0.0234375 0  0.75 0.0234375 0  0.757812 0.0234375 0  0.765625 0.0234375 0  0.773438 0.0234375 0  0.78125 0.0234375 0  0.789062 0.0234375 0  0.796875 0.0234375 0  0.804688 0.0234375 0  0.8125 0.0234375 0  0.820312 0.0234375 0  0.828125 0.0234375 0  0.835938 0.0234375 0  0.84375 0.0234375 0  0.851562 0.0234375 0  0.859375 0.0234375 0  0.867188 0.0234375 0  0.875 0.0234375 0  0.882812 0.0234375 0  0.890625 0.0234375 0  0.898438 0.0234375 0  0.90625 0.0234375 0  0.914062 0.0234375 0  0.921875 0.0234375 0  0.929688 0.0234375 0  0.9375 0.0234375 0  0.945312 0.0234
[...]
<PointData  Vectors="u"> 
<DataArray  type="Float32"  Name="u"  NumberOfComponents="3" format="ascii">0.000000e+00 0.000000e+00 0.000000e+00  0.000000e+00 0.000000e+00 0.000000e+00  0.000000e+00 0.000000e+00 0.000000e+00  0.000000e+00 0.000000e+00 0.000000e+00  0.000000e+00 0.000000e+00 0.000000e+00  0.000000e+00 0.000000e+00 0.000000e+00  0.000000e+00 0.000000e+00 0.000000e+00  0.000000e+00 0.000000e+00 0.000000e+00  0.000000e+00 0.000000e+00 0.000000e+00  0.000000e+00 0.000000e+00 0.000000e+00  0.000000e+00 0.000000e+00 0.000000e+00  0.000000e+00 0.000000e+00 0.000000e+00  0.000000e+00 0.000000e+00 0.000000e+00  0.000000e+00 0.000000e+00 0.000000e+00  0.000000e+00 0.000000e+00 0.000000e+00  0.000000e+00 0.000000e+00 0.000000e+00  0.000000e+00 0.000000e+00 0.000000e+00  0.000000e+00 0.000000e+00 0.000000e+00  0.000000e+00 0.000000e+00 0.000000e+00  0.000000e+00 0.000000e+00 0.000000e+00  0.000000e+00 0.000000e+00 0.000000e+00  0.000000e+00 0.000000e+00 0.000000e+00  0.000000e+00 0.000000e+00 0.000000e+00  0.000000e+00 0.000000e+00 0.000000e+00  0.000000e+00 0.000000e+00 0.000000e+00  0.000000e+00 0.000000e+00 0.000000e+00  0.000000e+00 0.000000e+00 0.000000e+00  0.000000e+00 0.000000e+00 0.000000e+00  0.000000e+00 0.000000e+00 0.000000e+00  0.000000e+00 0.000000e+00 0.000000e+00  0.000000e+00 0.000000e+00 0.000000e+00  0.000000e+00 0.000000e+00 0.000000e+00  0.000000e+00 0.000000e+00 0.000000e+00  0.000000e+00 0.000000e+00 0.000000e+00  0.000000e+00 0.000000e+00 0.000000e+00  0.000000e+00 0.000000e+00 0.000000e+00  0.000000e+00 0.000000e+00 0.000000e+00  0.000000e+00 0.000000e+00 0.000000e+00  0.000000e+00 0.000000e+00 0.000000e+00  0.000000e+00 0.000000e+00 0.000000e+00  0.000000e+00 0.000000e+00 0.000000e+00  0.000000e+00 0.000000e+00 0.000000e+00  0.000000e+00 0.000000e+00 0.000000e+00  0.000000e+00 0.000000e+00 0.000000e+00  0.000000e+00 0.000000e+00 0.000000e+00  0.000000e+00 0.000000e+00 0.000000e+00  0.000000e+00 0.000000e+00 0.000000e+00  0.000000e+00 0.000000e+00 0.000000e+00  0.000000e+00 0.000000e+00 0.000000e+00  0.000000e+00 0.000000e+00 0.000000e+00  0.000000e+00 0.000000e+00 0.000000e+00  0.000000e+00 0.000000e+00 0.000000e+00  0.000000e+00 0.000000e+00 0.000000e+00  0.000000e+00 0.000000e+00 0.000000e+00  0.000000e+00 0.000000e+00 0.000000e+00  0.000000e+00 0.000000e+00 0.000000e+00  0.000000e+00 0.000000e+00 0.000000e+00  0.000000e+00 0.000000e+00 0.000000e+00  0.000000e+00 0.000000e+00 0.000000e+00  0.000000e+00 0.000000e+00 0.000000e+00  0.000000e+00 0.000000e+00 0.000000e+00  0.000000e+00 0.000000e+00 0.000000e+00  0.000000e+00 0.000000e+00 0.000000e+00  0.000000e+00 0.000000e+00 0.000000e+00  0.000000e+00 0.000000e+00 0.000000e+00  0.000000e+00 0.000000e+00 0.000000e+00  0.000000e+00 0.000000e+00 0.000000e+00  0.000000e+00 0.000000e+00 0.000000e+00  0.000000e+00 0.000000e+00 0.000000e+00  0.000000e+00 0.000000e+00 0.000000e+00  0.000000e+00 0.000000e+00 0.000000e+00  0.000000e+00 0.000000e+00 0.000000e+00  0.000000e+00 0.000000e+00 0.000000e+00  0.000000e+00 0.000000e+00 0.000000e+00  0.000000e+00 0.000000e+00 0.000000e+00  0.000000e+00 0.000000e+00 0.000000e+00  0.000000e+00 0.000000e+00 0.000000e+00  0.000000e+00 0.000000e+00 0.000000e+00  0.000000e+00 0.000000e+00 0.000000e+00  0.000000e+00 0.000000e+00 0.000000e+00  0.000000e+00 0.000000e+00 0.000000e+00  0.000000e+00 0.000000e+00 0.000000e+00  0.000000e+00 0.000000e+00 0.000000e+00  0.000000e+00 0.000000e+00 0.000000e+00  0.000000e+00 0.000000e+00 0.000000e+00  0.000000e+00 0.000000e+00 0.000000e+00  0.000000e+00 0.000000e+00 0.000000e+00  0.000000e+00 0.000000e+00 0.000000e+00  0.000000e+00 0.000000e+00 0.000000e+00  0.000000e+00 0.000000e+00 0.000000e+00  0.000000e+00 0.000000e+00 0.000000e+00  0.000000e+00 0.000000e+00 0.000000e+00  0.000000e+00 0.000000e+00 0.000000e+00  0.000000e+00 0.000000e+00 0.000000e+00  0.000000e+00 0.000000e+00 0.000000e+00  0.000000e+00 0.000000e+00 0.000000e+00  0.000000e+00 0.000000e+00 0.000000e+00  0.000000e+00 0.000000e+00 0.000000e+00  0.000000e+00 0.000000e+00 0.000000e+00  0.000000e+00 0.000000e+00 0.000000e+00  0.000000e+00 0.000000e+00 0.000000e+00  0.000000e+00 0.000000e+00 0.000000e+00  0.000000e+00 0.000000e+00 0.000000e+00  0.000000e+00 0.000000e+00 0.000000e+00  0.000000e+00 0.000000e+00 0.000000e+00  0.000000e+00 0.000000e+00 0.000000e+00  0.000000e+00 0.000000e+00 0.000000e+00  0.000000e+00 0.000000e+00 0.000000e+00  0.000000e+00 0.000000e+00 0.000000e+00  0.000000e+00 0.000000e+00 0.000000e+00  0.000000e+00 0.000000e+00 0.000000e+00  0.000000e+00 0.000000e+00 0.000000e+00  0.000000e+00 0.000000e+00 0.000000e+00  0.000000e+00 0.000000e+00 0.000000e+00  0.000000e+00 0.000000e+00 0.000000e+00  0.000000e+00 0.000000e+00 0.000000e+00  0.000000e+00 0.000000e+00 0.000000e+00  0.000000e+00 0.000000e+00 0.000000e+00  0.000000e+00 0.000000e+00 0.000000e+00  0.000000e+00 0.000000e+00 0.000000e+00  0.000000e+00 0.000000e+00 0.000000e+00  0.000000e+00 0.000000e+00 0.000000e+00  0.000000e+00 0.000000e+00 0.000000e+00  0.000000e+00 0.000000e+00 0.000000e+00  0.000000e+00 0.000000e+00 0.000000e+00  0.000000e+00 0.000000e+00 0.000000e+00  0.000000e+00 0.000000e+00 0.000000e+00  0.000000e+00 0.000000e+00 0.000000e+00  0.000000e+00 0.000000e+00 0.000000e+00  0.000000e+00 0.000000e+00 0.000000e+00  5.845107e-06 -5.844431e-06 0.000000e+00  2.054256e-05 -9.925771e-06 0.000000e+00  3.911858e-05 -1.064546e-05 0.000000e+00  5.643761e-05 -8.999785e-06 0.000000e+00  6.898228e-05 -5.790319e-06 0.000000e+00  7.434738e-05 -1.585700e-06 0.000000e+00  7.099587e-05 3.225755e-06 0.000000e+00  5.799469e-05 8.379859e-06 0.000000e+00  3.483539e-05 1.369295e-05 0.000000e+00  1.312117e-06 1.903551e-05 0.000000e+00  -4.256359e-05 2.431518e-05 0.000000e+00  -9.662295e-05 2.946570e-05 0.000000e+00  -1.605789e-04 3.443928e-05 0.000000e+00  -2.340795e-04 3.920317e-05 0.000000e+00  -3.166938e-04 4.373332e-05 0.000000e+00  -4.079454e-04 4.801353e-05 0.000000e+00  -5.073531e-04 5.203465e-05 0.000000e+00  -6.144234e-04 5.579187e-05 0.000000e+00  -7.286275e-04 5.928272e-05 0.000000e+00  -8.494302e-04 6.250731e-05 0.000000e+00  -9.763277e-04 6.546831e-05 0.000000e+00  -1.108824e-03 6.816941e-05 0.000000e+00  -1.246396e-03 7.061423e-05 0.000000e+00  -1.388525e-03 7.280674e-05 0.000000e+00  -1.534737e-03 7.475152e-05 0.000000e+00  -1.684567e-03 7.645285e-05 0.000000e+00  -1.837520e-03 7.791423e-05 0.000000e+00  -1.993105e-03 7.913896e-05 0.000000e+00  -2.150878e-03 8.013039e-05 0.000000e+00  -2.310402e-03 8.089155e-05 0.000000e+00  -2.471204e-03 8.142516e-05 0.000000e+00  -2.632818e-03 8.173404e-05 0.000000e+00  -2.794822e-03 8.182127e-05 0.000000e+00  -2.956804e-03 8.169012e-05 0.000000e+00  -3.118313e-03 8.134414e-05 0.000000e+00  -3.278911e-03 8.078743e-05 0.000000e+00  -3.438203e-03 8.002436e-05 0.000000e+00  -3.595809e-03 7.905961e-05 0.000000e+00  -3.751313e-03 7.789850e-05 0.000000e+00  -3.904313e-03 7.654676e-05 0.000000e+00  -4.054457e-03 7.501007e-05 0.000000e+00  -4.201404e-03 7.329428e-05 0.000000e+00  -4.344786e-03 7.140582e-05 0.000000e+00  -4.484250e-03 6.935137e-05 0.000000e+00  -4.619491e-03 6.713723e-05 0.000000e+00  -4.750215e-03 6.476974e-05 0.000000e+00  -4.876108e-03 6.225598e-05 0.000000e+00  -4.996872e-03 5.960325e-05 0.000000e+00  -5.112253e-03 5.681838e-05 0.000000e+00  -5.222011e-03 5.390837e-05 0.000000e+00  -5.325891e-03 5.088122e-05 0.000000e+00  -5.423655e-03 4.774532e-05 0.000000e+00  -5.515109e-03 4.450863e-05 0.000000e+00  -5.600072e-03 4.117941e-05 0.000000e+00  -5.678359e-03 3.776723e-05 0.000000e+00  -5.749805e-03 3.428211e-05 0.000000e+00  -5.814285e-03 3.073359e-05 0.000000e+00  -5.871690e-03 2.713164e-05 0.000000e+00  -5.921916e-03 2.348749e-05 0.000000e+00  -5.964885e-03 1.981275e-05 0.000000e+00  -6.000554e-03 1.611833e-05 0.000000e+00  -6.028895e-03 1.241530e-05 0.000000e+00  -6.049899e-03 8.715687e-06 0.000000e+00  -6.063581e-03 5.031448e-06 0.000000e+00  -6.069983e-03 1.373287e-06 0.000000e+00  -6.069165e-03 -2.248548e-06 0.000000e+00  -6.061207e-03 -5.823550e-06 0.000000e+00  -6.046210e-03 -9.342121e-06 0.000000e+00  -6.024291e-03 -1.279670e-05 0.000000e+00  -5.995576e-03 -1.618103e-05 0.000000e+00  -5.960210e-03 -1.948954e-05 0.000000e+00  -5.918350e-03 -2.271843e-05 0.000000e+00  -5.870147e-03 -2.586663e-05 0.000000e+00  -5.815753e-03 -2.893507e-05 0.000000e+00  -5.755326e-03 -3.192596e-05 0.000000e+00  -5.689023e-03 -3.484359e-05 0.000000e+00  -5.616974e-03 -3.769504e-05 0.000000e+00  -5.539290e-03 -4.048916e-05 0.000000e+00  -5.456086e-03 -4.323558e-05 0.000000e+00  -5.367457e-03 -4.594514e-05 0.000000e+00  -5.273458e-03 -4.862995e-05 0.000000e+00  -5.174114e-03 -5.130218e-05 0.000000e+00  -5.069459e-03 -5.397253e-05 0.000000e+00  -4.959505e-03 -5.665016e-05 0.000000e+00  -4.844224e-03 -5.934246e-05 0.000000e+00  -4.723577e-03 -6.205346e-05 0.000000e+00  -4.597550e-03 -6.478223e-05 0.000000e+00  -4.466139e-03 -6.752275e-05 0.000000e+00  -4.329325e-03 -7.026394e-05 0.000000e+00  -4.187116e-03 -7.298860e-05 0.000000e+00  -4.039594e-03 -7.567244e-05 0.000000e+00  -3.886897e-03 -7.828499e-05 0.000000e+00  -3.729190e-03 -8.079080e-05 0.000000e+00  -3.566708e-03 -8.314958e-05 0.000000e+00  -3.399809e-03 -8.531679e-05 0.000000e+00  -3.228943e-03 -8.724581e-05 0.000000e+00  -3.054605e-03 -8.889012e-05 0.000000e+00  -2.877376e-03 -9.020433e-05 0.000000e+00  -2.697971e-03 -9.114565e-05 0.000000e+00  -2.517180e-03 -9.167606e-05 0.000000e+00  -2.335816e-03 -9.176365e-05 0.000000e+00  -2.154747e-03 -9.138325e-05 0.000000e+00  -1.974928e-03 -9.051725e-05 0.000000e+00  -1.797341e-03 -8.915604e-05 0.000000e+00  -1.622933e-03 -8.729731e-05 0.000000e+00  -1.452648e-03 -8.494555e-05 0.000000e+00  -1.287462e-03 -8.211203e-05 0.000000e+00  -1.128320e-03 -7.881348e-05 0.000000e+00  -9.760887e-04 -7.507003e-05 0.000000e+00  -8.315971e-04 -7.090472e-05 0.000000e+00  -6.956621e-04 -6.634390e-05 0.000000e+00  -5.690434e-04 -6.141582e-05 0.000000e+00  -4.524109e-04 -5.614892e-05 0.000000e+00  -3.463791e-04 -5.057322e-05 0.000000e+00  -2.515270e-04 -4.472271e-05 0.000000e+00  -1.683555e-04 -3.863574e-05 0.000000e+00  -9.725979e-05 -3.235598e-05 0.000000e+00  -3.853999e-05 -2.593776e-05 0.000000e+00  7.614717e-06 -1.945378e-05 0.000000e+00  4.119014e-05 -1.300225e-05 0.000000e+00  6.241171e-05 -6.718449e-06 0.000000e+00  7.181886e-05 -7.972252e-07 0.000000e+00  7.040468e-05 4.472598e-06 0.000000e+00  5.983004e-05 8.657008e-06 0.000000e+00  4.271591e-05 1.109466e-05 0.000000e+00  2.311489e-05 1.081727e-05 0.000000e+00  6.619339e-06 6.620313e-06 0.000000e+00  0.000000e+00 0.000000e+00 0.000000e+00  0.000000e+00 0.000000e+00 0.000000e+00  9.937540e-06 -2.054901e-05 0.000000e+00  3.170506e-05 -3.167832e-05 0.000000e+00  5.656556e-05 -3.284607e-05 0.000000e+00  7.758989e-05 -2.629525e-05 0.000000e+00  8.947859e-05 -1.431689e-05 0.000000e+00  8.832513e-05 1.294012e-06 0.000000e+00  7.144174e-05 1.922911e-05 0.000000e+00  3.707496e-05 3.854609e-05 0.000000e+00  -1.581342e-05 5.856443e-05 0.000000e+00  -8.772335e-05 7.878961e-05 0.000000e+00  -1.787506e-04 9.886016e-05 0.000000e+00  -2.886877e-04 1.185112e-04 0.000000e+00  -4.170914e-04 1.375476e-04 0.000000e+00  -5.633846e-04 1.558325e-04 0.000000e+00  -7.268242e-04 1.732631e-04 0.000000e+00  -9.065687e-04 1.897679e-04 0.000000e+00  -1.101758e-03 2.053035e-04 0.000000e+00  -1.311496e-03 2.198441e-04 0.000000e+00  -1.534811e-03 2.333738e-04 0.000000e+00  -1.770708e-03 2.458876e-04 0.000000e+00  -2.018250e-03 2.573912e-04 0.000000e+00  -2.276504e-03 2.678948e-04 0.000000e+00  -2.544481e-03 2.774090e-04 0.000000e+00  -2.821198e-03 2.859465e-04 0.000000e+00  -3.105749e-03 2.935229e-04 0.000000e+00  -3.397248e-03 3.001532e-04 0.000000e+00  -3.694746e-03 3.058497e-04 0.000000e+00  -3.997301e-03 3.106244e-04 0.000000e+00  -4.304060e-03 3.144898e-04 0.000000e+00  -4.614183e-03 3.174574e-04 0.000000e+00  -4.926762e-03 3.195374e-04 0.000000e+00  -5.240896e-03 3.207409e-04 0.000000e+00  -5.555777e-03 3.210797e-04 0.000000e+00  -5.870607e-03 3.205664e-04 0.000000e+00  -6.184523e-03 3.192146e-04 0.000000e+00  -6.496674e-03 3.170399e-04 0.000000e+00  -6.806305e-03 3.140590e-04 0.000000e+00  -7.112676e-03 3.102897e-04 0.000000e+00  -7.414986e-03 3.057522e-04 0.000000e+00  -7.712457e-03 3.004681e-04 0.000000e+00  -8.004407e-03 2.944593e-04 0.000000e+00  -8.290173e-03 2.877480e-04 0.000000e+00  -8.569041e-03 2.803588e-04 0.000000e+00  -8.840322e-03 2.723175e-04 0.000000e+00  -9.103425e-03 2.636486e-04 0.000000e+00  -9.357777e-03 2.543765e-04 0.000000e+00  -9.602765e-03 2.445289e-04 0.000000e+00  -9.837806e-03 2.341344e-04 0.000000e+00  -1.006241e-02 2.232198e-04 0.000000e+00  -1.027610e-02 2.118126e-04 0.000000e+00  -1.047838e-02 1.999444e-04 0.000000e+00  -1.066879e-02 1.876480e-04 0.000000e+00  -1.084695e-02 1.749548e-04 0.000000e+00  -1.101250e-02 1.618972e-04 0.000000e+00  -1.116509e-02 1.485127e-04 0.000000e+00  -1.130438e-02 1.348405e-04 0.000000e+00  -1.143014e-02 1.209179e-04 0.000000e+00  -1.154215e-02 1.067836e-04 0.000000e+00  -1.164021e-02 9.248119e-05 0.000000e+00  -1.172415e-02 7.805580e-05 0.000000e+00  -1.179390e-02 6.354956e-05 0.000000e+00  -1.184938e-02 4.900518e-05 0.000000e+00  -1.189058e-02 3.446913e-05 0.000000e+00  -1.191752e-02 1.998740e-05 0.000000e+00  -1.193026e-02 5.601113e-06 0.000000e+00  -1.192892e-02 -8.650386e-06 0.000000e+00  -1.191364e-02 -2.272669e-05 0.000000e+00  -1.188460e-02 -3.659090e-05 0.000000e+00  -1.184202e-02 -5.021395e-05 0.000000e+00  -1.178612e-02 -6.357173e-05 0.000000e+00  -1.171717e-02 -7.664251e-05 0.000000e+00  -1.163547e-02 -8.941122e-05 0.000000e+00  -1.154129e-02 -1.018732e-04 0.000000e+00  -1.143492e-02 -1.140312e-04 0.000000e+00  -1.131664e-02 -1.258924e-04 0.000000e+00  -1.118676e-02 -1.374718e-04 0.000000e+00  -1.104553e-02 -1.487948e-04 0.000000e+00  -1.089315e-02 -1.598931e-04 0.000000e+00  -1.072986e-02 -1.708011e-04 0.000000e+00  -1.055584e-02 -1.815573e-04 0.000000e+00  -1.037121e-02 -1.922050e-04 0.000000e+00  -1.017605e-02 -2.027872e-04 0.000000e+00  -9.970443e-03 -2.133412e-04 0.000000e+00  -9.754452e-03 -2.238983e-04 0.000000e+00  -9.528060e-03 -2.344831e-04 0.000000e+00  -9.291233e-03 -2.451077e-04 0.000000e+00  -9.043997e-03 -2.557655e-04 0.000000e+00  -8.786398e-03 -2.664308e-04 0.000000e+00  -8.518454e-03 -2.770597e-04 0.000000e+00  -8.240234e-03 -2.875857e-04 0.000000e+00  -7.951951e-03 -2.979159e-04 0.000000e+00  -7.653922e-03 -3.079352e-04 0.000000e+00  -7.346506e-03 -3.175104e-04 0.000000e+00  -7.030191e-03 -3.264907e-04 0.000000e+00  -6.705694e-03 -3.347098e-04 0.000000e+00  -6.373894e-03 -3.419944e-04 0.000000e+00  -6.035746e-03 -3.481715e-04 0.000000e+00  -5.692362e-03 -3.530728e-04 0.000000e+00  -5.345093e-03 -3.565395e-04 0.000000e+00  -4.995431e-03 -3.584308e-04 0.000000e+00  -4.644897e-03 -3.586286e-04 0.000000e+00  -4.295110e-03 -3.570394e-04 0.000000e+00  -3.947855e-03 -3.535978e-04 0.000000e+00  -3.604958e-03 -3.482686e-04 0.000000e+00  -3.268181e-03 -3.410431e-04 0.000000e+00  -2.939278e-03 -3.319383e-04 0.000000e+00  -2.620066e-03 -3.209969e-04 0.000000e+00  -2.312303e-03 -3.082826e-04 0.000000e+00  -2.017601e-03 -2.938721e-04 0.000000e+00  -1.737496e-03 -2.778543e-04 0.000000e+00  -1.473506e-03 -2.603318e-04 0.000000e+00  -1.227037e-03 -2.414159e-04 0.000000e+00  -9.993190e-04 -2.212206e-04 0.000000e+00  -7.914697e-04 -1.998676e-04 0.000000e+00  -6.045313e-04 -1.774966e-04 0.000000e+00  -4.393864e-04 -1.542659e-04 0.000000e+00  -2.966997e-04 -1.303564e-04 0.000000e+00  -1.769399e-04 -1.059919e-04 0.000000e+00  -8.035044e-05 -8.146643e-05 0.000000e+00  -6.831422e-06 -5.716920e-05 0.000000e+00  4.417388e-05 -3.362207e-05 0.000000e+00  7.379072e-05 -1.155127e-05 0.000000e+00  8.391382e-05 8.012547e-06 0.000000e+00  7.749264e-05 2.360843e-05 0.000000e+00  5.885057e-05 3.318777e-05 0.000000e+00  3.401332e-05 3.400543e-05 0.000000e+00  1.081726e-05 2.311553e-05 0.000000e+00  0.000000e+00 0.000000e+00 0.000000e+00  0.000000e+00 0.000000e+00 0.000000e+00  1.069210e-05 -3.917271e-05 0.000000e+00  3.298673e-05 -5.657794e-05 0.000000e+00  5.574829e-05 -5.555515e-05 0.000000e+00  7.095206e-05 -4.021880e-05 0.000000e+00  7.241529e-05 -1.442479e-05 0.000000e+00  5.545106e-05 1.866639e-05 0.000000e+00  1.666785e-05 5.661189e-05 0.000000e+00  -4.625848e-05 9.756574e-05 0.000000e+00  -1.347847e-04 1.401440e-04 0.000000e+00  -2.496810e-04 1.833103e-04 0.000000e+00  -3.911789e-04 2.262876e-04 0.000000e+00  -5.590910e-04 2.684942e-04 0.000000e+00  -7.528930e-04 3.094932e-04 0.000000e+00  -9.718654e-04 3.489709e-04 0.000000e+00  -1.215038e-03 3.866874e-04 0.000000e+00  -1.481287e-03 4.224712e-04 0.000000e+00  -1.769454e-03 4.562129e-04 0.000000e+00  -2.078318e-03 4.878427e-04 0.000000e+00  -2.406533e-03 5.173139e-04 0.000000e+00  -2.752714e-03 5.446046e-04 0.000000e+00  -3.115547e-03 5.697177e-04 0.000000e+00  -3.493722e-03 5.926673e-04 0.000000e+00  -3.885836e-03 6.134697e-04 0.000000e+00  -4.290488e-03 6.321470e-04 0.000000e+00  -4.706390e-03 6.487287e-04 0.000000e+00  -5.132273e-03 6.632438e-04 0.000000e+00  -5.566774e-03 6.757166e-04 0.000000e+00  -6.008541e-03 6.861714e-04 0.000000e+00  -6.456348e-03 6.946342e-04 0.000000e+00  -6.908986e-03 7.011292e-04 0.000000e+00  -7.365144e-03 7.056784e-04 0.000000e+00  -7.823524e-03 7.083051e-04 0.000000e+00  -8.282962e-03 7.090351e-04 0.000000e+00  -8.742307e-03 7.078952e-04 0.000000e+00  -9.200311e-03 7.049147e-04 0.000000e+00  -9.655743e-03 7.001269e-04 0.000000e+00  -1.010751e-02 6.935675e-04 0.000000e+00  -1.055455e-02 6.852744e-04 0.000000e+00  -1.099569e-02 6.752904e-04 0.000000e+00  -1.142980e-02 6.636622e-04 0.000000e+00  -1.185590e-02 6.504362e-04 0.000000e+00  -1.227301e-02 6.356601e-04 0.000000e+00  -1.268010e-02 6.193872e-04 0.000000e+00  -1.307617e-02 6.016734e-04 0.000000e+00  -1.346034e-02 5.825715e-04 0.000000e+00  -1.383179e-02 5.621353e-04 0.000000e+00  -1.418961e-02 5.404254e-04 0.000000e+00  -1.453295e-02 5.175046e-04 0.000000e+00  -1.486109e-02 4.934321e-04 0.000000e+00  -1.517334e-02 4.682686e-04 0.000000e+00  -1.546897e-02 4.420838e-04 0.000000e+00  -1.574730e-02 4.149506e-04 0.000000e+00  -1.600777e-02 3.869378e-04 0.000000e+00  -1.624987e-02 3.581174e-04 0.000000e+00  -1.647306e-02 3.285717e-04 0.000000e+00  -1.667687e-02 2.983870e-04 0.000000e+00  -1.686093e-02 2.676450e-04 0.000000e+00  -1.702493e-02 2.364305e-04 0.000000e+00  -1.716856e-02 2.048392e-04 0.000000e+00  -1.729159e-02 1.729693e-04 0.000000e+00  -1.739388e-02 1.409126e-04 0.000000e+00  -1.747534e-02 1.087621e-04 0.000000e+00  -1.753591e-02 7.661871e-05 0.000000e+00  -1.757562e-02 4.458244e-05 0.000000e+00  -1.759456e-02 1.274242e-05 0.000000e+00  -1.759286e-02 -1.881613e-05 0.000000e+00  -1.757073e-02 -5.000546e-05 0.000000e+00  -1.752841e-02 -8.074539e-05 0.000000e+00  -1.746620e-02 -1.109727e-04 0.000000e+00  -1.738442e-02 -1.406349e-04 0.000000e+00  -1.728343e-02 -1.696839e-04 0.000000e+00  -1.716364e-02 -1.980859e-04 0.000000e+00  -1.702546e-02 -2.258294e-04 0.000000e+00  -1.686925e-02 -2.529182e-04 0.000000e+00  -1.669546e-02 -2.793654e-04 0.000000e+00  -1.650451e-02 -3.052001e-04 0.000000e+00  -1.629673e-02 -3.304732e-04 0.000000e+00  -1.607246e-02 -3.552489e-04 0.000000e+00  -1.583203e-02 -3.795961e-04 0.000000e+00  -1.557572e-02 -4.035919e-04 0.000000e+00  -1.530374e-02 -4.273235e-04 0.000000e+00  -1.501621e-02 -4.508769e-04 0.000000e+00  -1.471330e-02 -4.743253e-04 0.000000e+00  -1.439514e-02 -4.977286e-04 0.000000e+00  -1.406177e-02 -5.211332e-04 0.000000e+00  -1.371318e-02 -5.445582e-04 0.000000e+00  -1.334948e-02 -5.679834e-04 0.000000e+00  -1.297081e-02 -5.913491e-04 0.000000e+00  -1.257726e-02 -6.145575e-04 0.000000e+00  -1.216898e-02 -6.374634e-04 0.000000e+00  -1.174637e-02 -6.598675e-04 0.000000e+00  -1.130994e-02 -6.815240e-04 0.000000e+00  -1.086026e-02 -7.021507e-04 0.000000e+00  -1.039807e-02 -7.214289e-04 0.000000e+00  -9.924454e-03 -7.390085e-04 0.000000e+00  -9.440692e-03 -7.545253e-04 0.000000e+00  -8.948167e-03 -7.676168e-04 0.000000e+00  -8.448473e-03 -7.779305e-0