<?xml version="1.0"?>
<VTKFile type="UnstructuredGrid"  version="0.1"  >
<UnstructuredGrid>
<Piece  NumberOfPoints="525" NumberOfCells="924">
<Points>
<DataArray  type="Float32"  NumberOfComponents="3"  format="ascii">0 0 0  2.2 0 0  2.2 0.41 0  0 0.41 0  0.15 0.2 0  0.25 0.2 0  0.2 0.15 0  0.2 0.25 0  0.104762 0 0  0.209524 0 0  0.314286 0 0  0.419048 0 0  0.52381 0 0  0.628571 0 0  0.733333 0 0  0.838095 0 0  0.942857 0 0  1.04762 0 0  1.15238 0 0  1.25714 0 0  1.3619 0 0  1.46667 0 0  1.57143 0 0  1.67619 0 0  1.78095 0 0  1.88571 0 0  1.99048 0 0  2.09524 0 0  2.2 0.1025 0  2.2 0.205 0  2.2 0.3075 0  2.1 0.41 0  2 0.41 0  1.9 0.41 0  1.8 0.41 0  1.7 0.41 0  1.6 0.41 0  1.5 0.41 0  1.4 0.41 0  1.3 0.41 0  1.2 0.41 0  1.1 0.41 0  1 0.41 0  0.9 0.41 0  0.8 0.41 0  0.7 0.41 0  0.6 0.41 0  0.5 0.41 0  0.4 0.41 0  0.3 0.41 0  0.2 0.41 0  0.1 0.41 0  0 0.3075 0  0 0.205 0  0 0.1025 0  0.156699 0.225 0  0.175 0.243301 0  0.225 0.243301 0  0.243301 0.225 0  0.243301 0.175 0  0.225 0.156699 0  0.175 0.156699 0  0.156699 0.175 0  0.352033 0.262216 0  1.04579 0.252253 0  1.24065 0.243419 0  0.985775 0.171509 0  1.30324 0.187395 0  0.890988 0.190768 0  1.39085 0.202767 0  0.801464 0.204685 0  1.49904 0.204666 0  0.704267 0.202289 0  1.60238 0.204951 0  0.487789 0.19191 0  1.72935 0.219637 0  1.83335 0.187427 0  2.03359 0.193642 0  0.314663 0.307348 0  0.249039 0.333583 0  2.12147 0.253405 0  2.06373 0.0836837 0  0.0734726 0.267055 0  0.143989 0.0677174 0  0.0613613 0.33781 0  0.299628 0.236829 0  0.527114 0.295386 0  0.262384 0.26549 0  0.275777 0.18341 0  1.74578 0.330928 0  1.84001 0.302448 0  1.64998 0.313838 0  0.648421 0.302367 0  1.54544 0.308508 0  0.755686 0.306156 0  1.42668 0.314809 0  0.870524 0.298596 0  1.22553 0.112785 0  1.05603 0.147372 0  0.969346 0.329867 0  1.32527 0.276284 0  2.02914 0.29511 0  1.88168 0.119486 0  1.79545 0.104842 0  1.35688 0.0892539 0  1.69041 0.105324 0  0.914199 0.0955566 0  1.58234 0.102923 0  0.61843 0.10815 0  1.47999 0.101161 0  0.725217 0.104273 0  0.821727 0.102306 0  1.96725 0.105778 0  0.418624 0.241547 0  0.135226 0.239087 0  1.14921 0.314841 0  0.404508 0.333259 0  0.590155 0.206269 0  2.12554 0.150731 0  1.93166 0.22436 0  0.104689 0.190046 0  0.267856 0.0744753 0  0.269368 0.221581 0  0.434446 0.114927 0  1.0089 0.0793381 0  0.953023 0.246698 0  1.25853 0.33355 0  1.05268 0.340828 0  2.1369 0.067383 0  0.522398 0.112537 0  1.3421 0.348929 0  0.215186 0.289473 0  0.203197 0.335348 0  1.13984 0.190728 0  1.93813 0.330504 0  1.10505 0.0883705 0  0.341988 0.0824728 0  0.253113 0.138035 0  0.291932 0.131907 0  0.203713 0.102439 0  0.150375 0.134668 0  0.151494 0.309119 0  0.354384 0.17896 0  0.0685367 0.100776 0  0.424128 0.180088 0  0.474925 0.0568661 0  2.10843 0.347669 0  2.16073 0.280452 0  2.16073 0.229202 0  2.2 0.25625 0  2.07949 0.0418418 0  2.02711 0.0418418 0  2.04286 0 0  0.176756 0.0338587 0  0.124375 0.0338587 0  0.157143 0 0  0.0806807 0.373905 0  0.0306807 0.373905 0  0.05 0.41 0  0.0306807 0.322655 0  0 0.35875 0  0.281851 0.320466 0  0.27452 0.371791 0  0.307331 0.358674 0  0.067417 0.302432 0  0.0367363 0.287277 0  0.307146 0.272089 0  0.325831 0.249523 0  0.333348 0.284782 0  0.255711 0.299536 0  0.288524 0.286419 0  2.07531 0.274257 0  2.03137 0.244376 0  2.07753 0.223523 0  2.01549 0.0947309 0  1.97886 0.052889 0  2.00042 0.14971 0  2.04866 0.138663 0  0.472869 0.268466 0  0.453206 0.216728 0  0.507451 0.243648 0  2.16277 0.177866 0  2.16277 0.126615 0  2.2 0.15375 0  1.90667 0.171923 0  1.88251 0.205894 0  1.85752 0.153456 0  1.88583 0.263404 0  1.83668 0.244938 0  0.604293 0.15721 0  0.647211 0.204279 0  0.661349 0.15522 0  0.359586 0.320304 0  0.37827 0.297737 0  0.155113 0.241194 0  0.145962 0.232044 0  0.164645 0.235355 0  0.259539 0.179205 0  0.262888 0.191705 0  0.248296 0.187059 0  0.281006 0.251159 0  1.0209 0.15944 0  1.05091 0.199813 0  1.01578 0.211881 0  1.26438 0.15009 0  1.23309 0.178102 0  1.27195 0.215407 0  1.29121 0.101019 0  1.33006 0.138324 0  0.928528 0.0477783 0  0.876147 0.0477783 0  0.890476 0 0  0.902594 0.143162 0  0.949987 0.133533 0  0.938381 0.181138 0  0.867963 0.0989313 0  0.856357 0.146537 0  0.829911 0.051153 0  1.41178 0.0446269 0  1.35939 0.0446269 0  1.41429 0 0  1.37386 0.14601 0  1.34705 0.195081 0  1.41844 0.0952074 0  1.43542 0.151964 0  1.47333 0.0505805 0  0.77753 0.051153 0  0.785714 0 0  0.811595 0.153496 0  0.846226 0.197726 0  0.773472 0.10329 0  0.76334 0.154479 0  0.729275 0.0521365 0  1.52571 0.0505805 0  1.51905 0 0  1.48951 0.152913 0  1.44494 0.203716 0  1.53117 0.102042 0  1.54069 0.153795 0  1.57689 0.0514615 0  1.9804 0.259735 0  1.98262 0.209001 0  1.82001 0.356224 0  1.87 0.356224 0  1.85 0.41 0  1.78468 0.261043 0  1.78135 0.203532 0  1.72289 0.370464 0  1.77289 0.370464 0  1.75 0.41 0  1.7929 0.316688 0  1.73757 0.275282 0  1.62499 0.361919 0  1.67499 0.361919 0  1.65 0.41 0  1.69788 0.322383 0  1.68966 0.266738 0  1.62618 0.259394 0  1.66586 0.212294 0  0.624211 0.356183 0  0.674211 0.356183 0  0.65 0.41 0  0.619288 0.254318 0  0.676344 0.252328 0  1.52272 0.359254 0  1.57272 0.359254 0  1.55 0.41 0  1.59771 0.311173 0  1.57391 0.256729 0  1.52224 0.256587 0  1.55071 0.204809 0  0.727843 0.358078 0  0.777843 0.358078 0  0.75 0.41 0  0.702053 0.304261 0  0.729977 0.254223 0  0.778575 0.25542 0  0.752865 0.203487 0  1.41334 0.362405 0  1.46334 0.362405 0  1.45 0.41 0  1.48606 0.311659 0  1.46286 0.259738 0  1.40876 0.258788 0  0.835262 0.354298 0  0.885262 0.354298 0  0.85 0.41 0  0.813105 0.302376 0  0.835994 0.25164 0  0.880756 0.244682 0  0.934673 0.369934 0  0.984673 0.369934 0  0.95 0.41 0  0.919935 0.314231 0  0.676894 0.0521365 0  0.680952 0 0  0.714742 0.153281 0  0.671824 0.106212 0  0.623501 0.054075 0  1.62927 0.0514615 0  1.62381 0 0  1.59236 0.153937 0  1.63638 0.104124 0  1.6464 0.155137 0  1.6833 0.052662 0  1.73568 0.052662 0  1.72857 0 0  1.70988 0.16248 0  1.74293 0.105083 0  1.7624 0.16224 0  1.7882 0.052421 0  1.84058 0.052421 0  1.83333 0 0  1.8144 0.146135 0  1.83857 0.112164 0  1.88369 0.059743 0  1.12461 0.36242 0  1.17461 0.36242 0  1.15 0.41 0  1.31425 0.231839 0  1.28296 0.259852 0  1.35806 0.239526 0  1.37597 0.295546 0  1.92648 0.052889 0  1.9381 0 0  1.92447 0.112632 0  1.94945 0.165069 0  0.352254 0.37163 0  0.402254 0.37163 0  0.35 0.41 0  0.513557 0.352693 0  0.563557 0.352693 0  0.55 0.41 0  0.587767 0.298876 0  0.558634 0.250827 0  0.538972 0.19909 0  0.452254 0.37163 0  0.45 0.41 0  0.465811 0.314323 0  0.411566 0.287403 0  0.385328 0.251881 0  0.119958 0.214566 0  0.0890808 0.22855 0  0.104349 0.253071 0  0.22452 0.371791 0  0.25 0.41 0  0.291071 0.0372376 0  0.23869 0.0372376 0  0.261905 0 0  0.265876 0.243536 0  0.256335 0.223291 0  0.252842 0.245245 0  0.284498 0.229205 0  1.03246 0.113355 0  0.997337 0.125424 0  0.961549 0.0874474 0  0.922006 0.218733 0  0.969399 0.209103 0  0.961184 0.288282 0  0.911774 0.272647 0  1.22926 0.371775 0  1.27927 0.371775 0  1.25 0.41 0  1.02634 0.375414 0  1.07634 0.375414 0  1.05 0.41 0  1.01101 0.335348 0  2.11607 0.0336915 0  2.16845 0.0336915 0  2.14762 0 0  2.16845 0.0849415 0  2.2 0.05125 0  2.10032 0.0755333 0  0.556277 0.159403 0  0.570414 0.110343 0  0.505093 0.152224 0  1.32105 0.379464 0  1.37105 0.379464 0  1.35 0.41 0  1.33369 0.312607 0  1.38439 0.331869 0  0.999406 0.249476 0  1.00757 0.29106 0  1.30031 0.34124 0  1.2919 0.304917 0  2.13122 0.109057 0  2.09464 0.117207 0  0.272572 0.202495 0  0.259684 0.21079 0  0.248296 0.212941 0  0.287702 0.21012 0  2.1235 0.202068 0  2.07956 0.172187 0  1.02826 0.039669 0  0.975878 0.039669 0  0.995238 0 0  1.04923 0.29654 0  1.10095 0.327835 0  1.0975 0.283547 0  0.57112 0.054075 0  0.576191 0 0  0.523104 0.0562685 0  1.24959 0.288485 0  1.20387 0.324195 0  1.19493 0.27913 0  0.238785 0.277481 0  0.232112 0.311528 0  0.226118 0.334465 0  0.201599 0.372674 0  1.14453 0.252784 0  1.19024 0.217074 0  1.09281 0.221491 0  0.209191 0.31241 0  0.220093 0.266387 0  0.243692 0.254395 0  0.235355 0.235355 0  0.478422 0.113732 0  0.461117 0.153419 0  1.91906 0.370252 0  1.96907 0.370252 0  1.95 0.41 0  1.98364 0.312807 0  2.01457 0.352555 0  1.88907 0.316476 0  1.9349 0.277432 0  1.18268 0.151757 0  1.09794 0.16905 0  1.12872 0.0441853 0  1.07634 0.0441853 0  1.1 0 0  1.05697 0.0838543 0  1.08054 0.117871 0  1.12244 0.139549 0  1.16529 0.100578 0  0.304922 0.078474 0  0.328137 0.0412364 0  0.380518 0.0412364 0  0.366667 0 0  0.388217 0.0986999 0  0.426747 0.0574635 0  0.31696 0.10719 0  0.279894 0.103191 0  0.272523 0.134971 0  0.260485 0.106255 0  0.228413 0.120237 0  0.214357 0.129569 0  0.239057 0.147367 0  1.30701 0.0446269 0  1.30952 0 0  1.24133 0.0563925 0  0.235785 0.0884571 0  1.18895 0.0563925 0  1.20476 0 0  0.206618 0.0512195 0  0.173851 0.0850782 0  0.0367363 0.236028 0  0 0.25625 0  0.264445 0.160722 0  0.248207 0.156517 0  0.235355 0.164645 0  0.283855 0.157658 0  0.130694 0.182523 0  0.127344 0.195023 0  0.151704 0.187059 0  0.127532 0.162357 0  0.153537 0.154834 0  0.0523445 0.197523 0  0.14336 0.274103 0  0.112483 0.288087 0  0.31508 0.181185 0  0.327006 0.207895 0  0.323158 0.155434 0  0.0866493 0.050388 0  0.0342684 0.050388 0  0.052381 0 0  0.0342684 0.101638 0  0 0.05125 0  0.421376 0.210817 0  0.455958 0.185999 0  0.429287 0.147508 0  0.106428 0.323464 0  0.353208 0.220588 0  0.106263 0.0842467 0  0.0342684 0.152888 0  0 0.15375 0  0.109456 0.117722 0  0.147182 0.101193 0  0.0866129 0.145411 0  0.162687 0.145684 0  0.164645 0.164645 0  0.348186 0.130716 0  0.386504 0.210254 0  0.389256 0.179524 0  0.394415 0.146944 0  0.125747 0.359559 0  0.175747 0.359559 0  0.15 0.41 0  0.177345 0.322233 0  0.142613 0.219544 0  0.151704 0.212941 0  0.499367 0.0284331 0  0.446986 0.0284331 0  0.471429 0 0  0.498661 0.0847016 0  0.454685 0.0858966 0  0.201856 0.126219 0  0.212941 0.151704 0  0.18334 0.299296 0  0.175187 0.142334 0  0.187059 0.151704 0  0.177044 0.118554 0  2.15421 0.327585 0  2.15421 0.378834 0  2.2 0.35875 0  2.10421 0.378834 0  2.15 0.41 0  2.05422 0.378
[...]
<PointData  Scalars="u"> 
<DataArray  type="Float32"  Name="u"  format="ascii">1.002314e-01  7.896248e-04  2.078852e-03  6.960454e-01  1.801906e+00  -4.600339e-01  -3.685439e+00  -4.347937e-03  4.707745e-02  -1.635862e-01  -1.971849e-01  -8.540626e-02  1.826647e-02  2.657105e-03  -3.891304e-03  5.265605e-02  7.444284e-02  8.925654e-02  6.146280e-02  3.767230e-02  7.639550e-02  9.018090e-02  4.229869e-02  1.933336e-02  5.248827e-02  5.344836e-02  3.855807e-03  -1.504926e-02  3.184459e-03  -1.591955e-03  -4.473476e-03  4.201025e-02  5.730327e-02  1.414488e-02  -2.193104e-03  5.580607e-02  8.522454e-02  3.697179e-02  1.600449e-02  7.195756e-02  9.766038e-02  5.999363e-02  4.923044e-02  7.656458e-02  1.125573e-01  1.790738e-01  1.122984e-01  -2.766497e-03  1.785008e-02  2.082597e-01  5.004832e-01  6.763646e-01  7.675579e-01  7.560895e-01  2.229032e-01  1.634386e+00  6.776141e-01  -2.955231e-01  -3.851490e-01  -7.427327e-01  -1.970255e+00  -2.854841e+00  -3.316415e-01  -3.486928e-01  1.033558e-03  -2.366140e-03  1.096706e-01  -1.518335e-02  3.352566e-02  3.215199e-02  -7.262222e-02  3.035653e-02  -2.129726e-02  -1.755583e-02  2.472805e-01  -2.496758e-02  2.364070e-02  -3.431660e-02  -1.811570e-01  2.054741e-01  1.054776e-02  -2.941989e-02  9.301171e-01  -9.308251e-02  7.183055e-01  -3.611553e-01  1.361341e-01  -2.699625e-01  -4.943142e-01  1.967316e-02  -3.208383e-02  9.588376e-02  1.536616e-01  6.606016e-02  1.508516e-01  -7.291863e-03  7.508319e-02  1.337092e-02  1.064520e-01  4.115977e-02  2.031735e-02  7.064341e-02  6.854062e-02  6.525318e-02  7.472854e-02  8.323643e-04  7.234245e-02  2.456627e-02  1.742258e-02  1.021811e-01  -3.033014e-02  4.832270e-02  1.017376e-02  -3.503183e-01  1.433902e+00  9.623667e-02  -6.401655e-02  5.314827e-02  -2.807631e-02  -1.300940e-02  1.117012e+00  -2.816599e-01  -3.623096e-01  -1.539989e-03  8.510356e-02  1.532720e-03  1.095907e-01  3.725914e-02  -1.188819e-02  8.269518e-02  4.614740e-02  2.810580e-02  4.089844e-01  1.062443e-02  3.486758e-02  8.837235e-02  -1.947541e-01  -8.486599e-01  -4.905777e-01  -6.772814e-01  -4.576966e-01  6.626914e-01  -4.142866e-01  1.895003e-01  1.955073e-01  -5.401283e-03  4.323353e-02  6.123155e-03  -1.001673e-02  -6.823834e-03  -2.012938e-02  -1.359665e-02  -1.448588e-02  -8.852804e-02  6.888620e-03  -3.555756e-02  6.819917e-01  6.964184e-01  6.945536e-01  7.358950e-01  7.049424e-01  8.287426e-03  2.438511e-01  1.388080e-01  7.921679e-01  8.011809e-01  -2.649555e-01  -3.456147e-01  -2.958079e-01  -9.704756e-02  -2.476509e-01  4.830268e-02  2.036900e-02  -2.268832e-03  -1.957936e-02  7.728572e-03  -2.230228e-02  -3.759228e-02  -7.683898e-02  4.928140e-02  -4.431560e-02  -8.552452e-03  -3.425105e-03  3.923219e-03  3.496457e-02  -1.831171e-03  6.671924e-02  -2.477423e-02  -4.593272e-02  3.494400e-02  2.551446e-02  2.161749e-02  -1.316550e-01  -3.385548e-01  1.201822e+00  1.540190e+00  1.069771e+00  -5.214974e-01  -4.584101e-01  -5.288838e-01  -3.002508e-01  1.153752e-01  6.715958e-02  6.383403e-02  3.824694e-03  -3.106427e-02  -3.466032e-02  2.311024e-02  4.348860e-02  7.144253e-02  6.869602e-02  6.772141e-02  8.066760e-02  8.610306e-02  9.530104e-02  6.600882e-02  4.771472e-02  5.310405e-02  9.730955e-02  7.425961e-02  9.331458e-02  8.091333e-02  1.899742e-02  1.065863e-01  1.076875e-01  9.480220e-02  1.715596e-02  2.381100e-02  1.412495e-02  -7.830955e-03  4.917916e-04  6.387342e-03  -1.679033e-02  6.877495e-02  6.960749e-02  8.814624e-02  3.402610e-02  6.726968e-02  4.693580e-02  3.709421e-02  2.231842e-02  -5.711596e-03  -1.187228e-02  -4.744002e-03  -2.017430e-03  -3.945898e-02  2.088438e-03  4.180676e-02  4.195606e-03  2.059668e-02  -1.849083e-02  6.204502e-03  9.499487e-02  7.550057e-02  8.116555e-02  5.624718e-02  3.920020e-02  4.295445e-02  -3.040628e-02  1.415394e-01  1.634193e-01  1.757645e-01  -2.610067e-02  2.273561e-02  4.857640e-02  7.895980e-02  6.559437e-02  9.173010e-02  3.127669e-02  3.635639e-03  4.354932e-03  1.646847e-01  1.162808e-01  1.405992e-01  1.225240e-01  7.868445e-03  1.290373e-02  -5.192599e-02  8.829969e-03  1.278077e-02  1.627399e-02  1.100587e-02  -2.356271e-02  -2.858328e-02  9.015933e-02  8.149693e-02  8.443198e-02  1.151144e-01  -8.673185e-03  -1.962791e-02  6.154822e-02  5.493793e-02  5.900000e-02  6.183816e-02  -2.246399e-02  -1.272043e-02  -1.464388e-02  -3.209911e-02  2.338574e-03  1.523943e-02  2.251036e-02  -1.091486e-03  -2.770506e-03  -2.673843e-02  1.406104e-02  3.377173e-02  3.376309e-02  -1.224934e-02  3.214704e-02  2.519425e-02  5.709223e-02  6.771183e-02  6.249078e-02  6.179445e-02  7.664946e-02  6.106812e-02  6.884455e-02  9.368969e-02  8.346016e-02  -2.299755e-03  2.195544e-02  -1.962752e-02  -3.423161e-03  3.942842e-02  3.018516e-02  4.493896e-02  1.192355e-02  4.996194e-02  2.690771e-02  7.768406e-02  1.901219e-02  6.627101e-02  6.324243e-02  1.039475e-01  6.300337e-02  8.516352e-02  1.309840e-02  2.279968e-02  -3.259600e-02  -3.191217e-01  -4.453870e-01  1.540320e+00  1.107875e+00  1.111720e+00  4.150833e-01  3.492459e-01  -2.012041e-01  -2.318184e-01  -1.954880e-01  -3.142044e-01  -3.434534e-01  -2.930483e-01  -3.632778e-01  9.497616e-02  9.722335e-02  7.425160e-02  1.949644e-02  6.485340e-02  9.031284e-03  3.130519e-02  1.055019e-01  8.535491e-02  9.588927e-02  4.178187e-02  5.369202e-02  4.800496e-02  4.878630e-02  -1.407104e-02  -2.217805e-03  -6.152043e-03  -2.873660e-03  -1.594324e-03  -2.082604e-02  8.949409e-02  7.137133e-02  1.242274e-01  6.079161e-02  2.339739e-02  3.754488e-02  3.729362e-02  9.229713e-03  4.568272e-03  4.153049e-03  6.723636e-02  7.920157e-02  -1.431777e-02  -3.373208e-02  -4.223369e-01  -3.707522e-01  -4.086335e-01  -4.459975e-01  -2.132819e-02  -3.785221e-02  8.871750e-02  7.772100e-02  8.276671e-02  2.867273e-02  6.768521e-02  2.553575e-02  3.554863e-02  2.222490e-02  3.409820e-02  7.910980e-02  9.939594e-02  9.557381e-02  -2.300549e-01  1.052224e-01  2.894041e-01  4.752772e-01  1.530863e-02  -3.900025e-02  3.031417e-02  3.167490e-01  -1.486930e-01  -2.534565e-01  -3.505793e-01  7.304040e-02  1.479077e-01  2.186739e-02  4.678281e-02  3.757997e-02  6.110014e-02  6.266783e-02  -7.376143e-03  3.323215e-03  1.622258e-02  7.552287e-02  7.484191e-02  9.122733e-02  8.207897e-02  9.731922e-02  9.739930e-02  7.140944e-02  4.920232e-02  -2.780744e-01  -1.775831e-01  -1.234751e-01  -1.324967e-01  -1.179094e-01  -6.593478e-02  -2.797466e-01  -4.391180e-01  -5.512072e-01  -5.201264e-01  -9.566824e-01  -1.514288e+00  -1.280477e+00  4.704733e-02  5.239954e-02  2.684623e-02  -4.406916e-01  4.187349e-02  4.221922e-02  -1.710653e-01  -3.402430e-01  8.514959e-01  8.309411e-01  -5.689107e-01  -7.221545e-01  -9.071956e-01  -5.406391e-01  1.140473e+00  1.472785e+00  9.715291e-01  5.064491e-01  -5.697531e-01  7.903690e-01  9.313555e-01  8.702506e-01  -5.742564e-01  -5.308822e-01  -4.746417e-01  7.032758e-02  1.035319e-01  8.986272e-02  2.257714e-01  1.065231e-01  9.852036e-03  2.792307e-01  9.438083e-02  7.297736e-01  -4.538087e-01  7.299367e-02  4.925930e-01  4.870790e-01  1.142742e-01  -1.133951e-01  5.109625e-01  -1.411632e+00  -2.045624e+00  -2.734103e-01  -2.787053e-01  -3.359929e-02  -2.387839e-02  6.463748e-01  5.476570e-01  6.157722e-01  4.934030e-01  1.859210e+00  1.956980e+00  9.614423e-03  -4.773862e-02  -1.695833e-02  4.679087e-02  -6.096556e-03  -1.671843e+00  -2.615947e+00  4.105338e-01  -1.853940e+00  -3.319732e+00  -8.773242e-01  1.459500e-02  1.453006e-02  -5.156246e-03  4.124603e-02  1.714623e-02  5.996238e-02  5.706629e-02  6.019536e-02  3.600558e-02  -1.286765e-01  -1.864814e-01  5.547132e-01  5.900860e-01  -5.426770e-02  </DataArray> 
</PointData> 
</Piece>
</UnstructuredGrid>
</VTKFile>