<?xml version="1.0"?>
<VTKFile type="UnstructuredGrid"  version="0.1"  >
<UnstructuredGrid>
<Piece  NumberOfPoints="525" NumberOfCells="924">
<Points>
<DataArray  type="Float32"  NumberOfComponents="3"  format="ascii">0 0 0  2.2 0 0  2.2 0.41 0  0 0.41 0  0.15 0.2 0  0.25 0.2 0  0.2 0.15 0  0.2 0.25 0  0.104762 0 0  0.209524 0 0  0.314286 0 0  0.419048 0 0  0.52381 0 0  0.628571 0 0  0.733333 0 0  0.838095 0 0  0.942857 0 0  1.04762 0 0  1.15238 0 0  1.25714 0 0  1.3619 0 0  1.46667 0 0  1.57143 0 0  1.67619 0 0  1.78095 0 0  1.88571 0 0  1.99048 0 0  2.09524 0 0  2.2 0.1025 0  2.2 0.205 0  2.2 0.3075 0  2.1 0.41 0  2 0.41 0  1.9 0.41 0  1.8 0.41 0  1.7 0.41 0  1.6 0.41 0  1.5 0.41 0  1.4 0.41 0  1.3 0.41 0  1.2 0.41 0  1.1 0.41 0  1 0.41 0  0.9 0.41 0  0.8 0.41 0  0.7 0.41 0  0.6 0.41 0  0.5 0.41 0  0.4 0.41 0  0.3 0.41 0  0.2 0.41 0  0.1 0.41 0  0 0.3075 0  0 0.205 0  0 0.1025 0  0.156699 0.225 0  0.175 0.243301 0  0.225 0.243301 0  0.243301 0.225 0  0.243301 0.175 0  0.225 0.156699 0  0.175 0.156699 0  0.156699 0.175 0  0.352033 0.262216 0  1.04579 0.252253 0  1.24065 0.243419 0  0.985775 0.171509 0  1.30324 0.187395 0  0.890988 0.190768 0  1.39085 0.202767 0  0.801464 0.204685 0  1.49904 0.204666 0  0.704267 0.202289 0  1.60238 0.204951 0  0.487789 0.19191 0  1.72935 0.219637 0  1.83335 0.187427 0  2.03359 0.193642 0  0.314663 0.307348 0  0.249039 0.333583 0  2.12147 0.253405 0  2.06373 0.0836837 0  0.0734726 0.267055 0  0.143989 0.0677174 0  0.0613613 0.33781 0  0.299628 0.236829 0  0.527114 0.295386 0  0.262384 0.26549 0  0.275777 0.18341 0  1.74578 0.330928 0  1.84001 0.302448 0  1.64998 0.313838 0  0.648421 0.302367 0  1.54544 0.308508 0  0.755686 0.306156 0  1.42668 0.314809 0  0.870524 0.298596 0  1.22553 0.112785 0  1.05603 0.147372 0  0.969346 0.329867 0  1.32527 0.276284 0  2.02914 0.29511 0  1.88168 0.119486 0  1.79545 0.104842 0  1.35688 0.0892539 0  1.69041 0.105324 0  0.914199 0.0955566 0  1.58234 0.102923 0  0.61843 0.10815 0  1.47999 0.101161 0  0.725217 0.104273 0  0.821727 0.102306 0  1.96725 0.105778 0  0.418624 0.241547 0  0.135226 0.239087 0  1.14921 0.314841 0  0.404508 0.333259 0  0.590155 0.206269 0  2.12554 0.150731 0  1.93166 0.22436 0  0.104689 0.190046 0  0.267856 0.0744753 0  0.269368 0.221581 0  0.434446 0.114927 0  1.0089 0.0793381 0  0.953023 0.246698 0  1.25853 0.33355 0  1.05268 0.340828 0  2.1369 0.067383 0  0.522398 0.112537 0  1.3421 0.348929 0  0.215186 0.289473 0  0.203197 0.335348 0  1.13984 0.190728 0  1.93813 0.330504 0  1.10505 0.0883705 0  0.341988 0.0824728 0  0.253113 0.138035 0  0.291932 0.131907 0  0.203713 0.102439 0  0.150375 0.134668 0  0.151494 0.309119 0  0.354384 0.17896 0  0.0685367 0.100776 0  0.424128 0.180088 0  0.474925 0.0568661 0  2.10843 0.347669 0  2.16073 0.280452 0  2.16073 0.229202 0  2.2 0.25625 0  2.07949 0.0418418 0  2.02711 0.0418418 0  2.04286 0 0  0.176756 0.0338587 0  0.124375 0.0338587 0  0.157143 0 0  0.0806807 0.373905 0  0.0306807 0.373905 0  0.05 0.41 0  0.0306807 0.322655 0  0 0.35875 0  0.281851 0.320466 0  0.27452 0.371791 0  0.307331 0.358674 0  0.067417 0.302432 0  0.0367363 0.287277 0  0.307146 0.272089 0  0.325831 0.249523 0  0.333348 0.284782 0  0.255711 0.299536 0  0.288524 0.286419 0  2.07531 0.274257 0  2.03137 0.244376 0  2.07753 0.223523 0  2.01549 0.0947309 0  1.97886 0.052889 0  2.00042 0.14971 0  2.04866 0.138663 0  0.472869 0.268466 0  0.453206 0.216728 0  0.507451 0.243648 0  2.16277 0.177866 0  2.16277 0.126615 0  2.2 0.15375 0  1.90667 0.171923 0  1.88251 0.205894 0  1.85752 0.153456 0  1.88583 0.263404 0  1.83668 0.244938 0  0.604293 0.15721 0  0.647211 0.204279 0  0.661349 0.15522 0  0.359586 0.320304 0  0.37827 0.297737 0  0.155113 0.241194 0  0.145962 0.232044 0  0.164645 0.235355 0  0.259539 0.179205 0  0.262888 0.191705 0  0.248296 0.187059 0  0.281006 0.251159 0  1.0209 0.15944 0  1.05091 0.199813 0  1.01578 0.211881 0  1.26438 0.15009 0  1.23309 0.178102 0  1.27195 0.215407 0  1.29121 0.101019 0  1.33006 0.138324 0  0.928528 0.0477783 0  0.876147 0.0477783 0  0.890476 0 0  0.902594 0.143162 0  0.949987 0.133533 0  0.938381 0.181138 0  0.867963 0.0989313 0  0.856357 0.146537 0  0.829911 0.051153 0  1.41178 0.0446269 0  1.35939 0.0446269 0  1.41429 0 0  1.37386 0.14601 0  1.34705 0.195081 0  1.41844 0.0952074 0  1.43542 0.151964 0  1.47333 0.0505805 0  0.77753 0.051153 0  0.785714 0 0  0.811595 0.153496 0  0.846226 0.197726 0  0.773472 0.10329 0  0.76334 0.154479 0  0.729275 0.0521365 0  1.52571 0.0505805 0  1.51905 0 0  1.48951 0.152913 0  1.44494 0.203716 0  1.53117 0.102042 0  1.54069 0.153795 0  1.57689 0.0514615 0  1.9804 0.259735 0  1.98262 0.209001 0  1.82001 0.356224 0  1.87 0.356224 0  1.85 0.41 0  1.78468 0.261043 0  1.78135 0.203532 0  1.72289 0.370464 0  1.77289 0.370464 0  1.75 0.41 0  1.7929 0.316688 0  1.73757 0.275282 0  1.62499 0.361919 0  1.67499 0.361919 0  1.65 0.41 0  1.69788 0.322383 0  1.68966 0.266738 0  1.62618 0.259394 0  1.66586 0.212294 0  0.624211 0.356183 0  0.674211 0.356183 0  0.65 0.41 0  0.619288 0.254318 0  0.676344 0.252328 0  1.52272 0.359254 0  1.57272 0.359254 0  1.55 0.41 0  1.59771 0.311173 0  1.57391 0.256729 0  1.52224 0.256587 0  1.55071 0.204809 0  0.727843 0.358078 0  0.777843 0.358078 0  0.75 0.41 0  0.702053 0.304261 0  0.729977 0.254223 0  0.778575 0.25542 0  0.752865 0.203487 0  1.41334 0.362405 0  1.46334 0.362405 0  1.45 0.41 0  1.48606 0.311659 0  1.46286 0.259738 0  1.40876 0.258788 0  0.835262 0.354298 0  0.885262 0.354298 0  0.85 0.41 0  0.813105 0.302376 0  0.835994 0.25164 0  0.880756 0.244682 0  0.934673 0.369934 0  0.984673 0.369934 0  0.95 0.41 0  0.919935 0.314231 0  0.676894 0.0521365 0  0.680952 0 0  0.714742 0.153281 0  0.671824 0.106212 0  0.623501 0.054075 0  1.62927 0.0514615 0  1.62381 0 0  1.59236 0.153937 0  1.63638 0.104124 0  1.6464 0.155137 0  1.6833 0.052662 0  1.73568 0.052662 0  1.72857 0 0  1.70988 0.16248 0  1.74293 0.105083 0  1.7624 0.16224 0  1.7882 0.052421 0  1.84058 0.052421 0  1.83333 0 0  1.8144 0.146135 0  1.83857 0.112164 0  1.88369 0.059743 0  1.12461 0.36242 0  1.17461 0.36242 0  1.15 0.41 0  1.31425 0.231839 0  1.28296 0.259852 0  1.35806 0.239526 0  1.37597 0.295546 0  1.92648 0.052889 0  1.9381 0 0  1.92447 0.112632 0  1.94945 0.165069 0  0.352254 0.37163 0  0.402254 0.37163 0  0.35 0.41 0  0.513557 0.352693 0  0.563557 0.352693 0  0.55 0.41 0  0.587767 0.298876 0  0.558634 0.250827 0  0.538972 0.19909 0  0.452254 0.37163 0  0.45 0.41 0  0.465811 0.314323 0  0.411566 0.287403 0  0.385328 0.251881 0  0.119958 0.214566 0  0.0890808 0.22855 0  0.104349 0.253071 0  0.22452 0.371791 0  0.25 0.41 0  0.291071 0.0372376 0  0.23869 0.0372376 0  0.261905 0 0  0.265876 0.243536 0  0.256335 0.223291 0  0.252842 0.245245 0  0.284498 0.229205 0  1.03246 0.113355 0  0.997337 0.125424 0  0.961549 0.0874474 0  0.922006 0.218733 0  0.969399 0.209103 0  0.961184 0.288282 0  0.911774 0.272647 0  1.22926 0.371775 0  1.27927 0.371775 0  1.25 0.41 0  1.02634 0.375414 0  1.07634 0.375414 0  1.05 0.41 0  1.01101 0.335348 0  2.11607 0.0336915 0  2.16845 0.0336915 0  2.14762 0 0  2.16845 0.0849415 0  2.2 0.05125 0  2.10032 0.0755333 0  0.556277 0.159403 0  0.570414 0.110343 0  0.505093 0.152224 0  1.32105 0.379464 0  1.37105 0.379464 0  1.35 0.41 0  1.33369 0.312607 0  1.38439 0.331869 0  0.999406 0.249476 0  1.00757 0.29106 0  1.30031 0.34124 0  1.2919 0.304917 0  2.13122 0.109057 0  2.09464 0.117207 0  0.272572 0.202495 0  0.259684 0.21079 0  0.248296 0.212941 0  0.287702 0.21012 0  2.1235 0.202068 0  2.07956 0.172187 0  1.02826 0.039669 0  0.975878 0.039669 0  0.995238 0 0  1.04923 0.29654 0  1.10095 0.327835 0  1.0975 0.283547 0  0.57112 0.054075 0  0.576191 0 0  0.523104 0.0562685 0  1.24959 0.288485 0  1.20387 0.324195 0  1.19493 0.27913 0  0.238785 0.277481 0  0.232112 0.311528 0  0.226118 0.334465 0  0.201599 0.372674 0  1.14453 0.252784 0  1.19024 0.217074 0  1.09281 0.221491 0  0.209191 0.31241 0  0.220093 0.266387 0  0.243692 0.254395 0  0.235355 0.235355 0  0.478422 0.113732 0  0.461117 0.153419 0  1.91906 0.370252 0  1.96907 0.370252 0  1.95 0.41 0  1.98364 0.312807 0  2.01457 0.352555 0  1.88907 0.316476 0  1.9349 0.277432 0  1.18268 0.151757 0  1.09794 0.16905 0  1.12872 0.0441853 0  1.07634 0.0441853 0  1.1 0 0  1.05697 0.0838543 0  1.08054 0.117871 0  1.12244 0.139549 0  1.16529 0.100578 0  0.304922 0.078474 0  0.328137 0.0412364 0  0.380518 0.0412364 0  0.366667 0 0  0.388217 0.0986999 0  0.426747 0.0574635 0  0.31696 0.10719 0  0.279894 0.103191 0  0.272523 0.134971 0  0.260485 0.106255 0  0.228413 0.120237 0  0.214357 0.129569 0  0.239057 0.147367 0  1.30701 0.0446269 0  1.30952 0 0  1.24133 0.0563925 0  0.235785 0.0884571 0  1.18895 0.0563925 0  1.20476 0 0  0.206618 0.0512195 0  0.173851 0.0850782 0  0.0367363 0.236028 0  0 0.25625 0  0.264445 0.160722 0  0.248207 0.156517 0  0.235355 0.164645 0  0.283855 0.157658 0  0.130694 0.182523 0  0.127344 0.195023 0  0.151704 0.187059 0  0.127532 0.162357 0  0.153537 0.154834 0  0.0523445 0.197523 0  0.14336 0.274103 0  0.112483 0.288087 0  0.31508 0.181185 0  0.327006 0.207895 0  0.323158 0.155434 0  0.0866493 0.050388 0  0.0342684 0.050388 0  0.052381 0 0  0.0342684 0.101638 0  0 0.05125 0  0.421376 0.210817 0  0.455958 0.185999 0  0.429287 0.147508 0  0.106428 0.323464 0  0.353208 0.220588 0  0.106263 0.0842467 0  0.0342684 0.152888 0  0 0.15375 0  0.109456 0.117722 0  0.147182 0.101193 0  0.0866129 0.145411 0  0.162687 0.145684 0  0.164645 0.164645 0  0.348186 0.130716 0  0.386504 0.210254 0  0.389256 0.179524 0  0.394415 0.146944 0  0.125747 0.359559 0  0.175747 0.359559 0  0.15 0.41 0  0.177345 0.322233 0  0.142613 0.219544 0  0.151704 0.212941 0  0.499367 0.0284331 0  0.446986 0.0284331 0  0.471429 0 0  0.498661 0.0847016 0  0.454685 0.0858966 0  0.201856 0.126219 0  0.212941 0.151704 0  0.18334 0.299296 0  0.175187 0.142334 0  0.187059 0.151704 0  0.177044 0.118554 0  2.15421 0.327585 0  2.15421 0.378834 0  2.2 0.35875 0  2.10421 0.378834 0  2.15 0.41 0  2.05422 0.378
[...]
<PointData  Vectors="u"> 
<DataArray  type="Float32"  Name="u"  NumberOfComponents="3" format="ascii">0.000000e+00 0.000000e+00 0.000000e+00  0.000000e+00 0.000000e+00 0.000000e+00  0.000000e+00 0.000000e+00 0.000000e+00  0.000000e+00 0.000000e+00 0.000000e+00  0.000000e+00 -1.000000e+00 0.000000e+00  0.000000e+00 1.000000e+00 0.000000e+00  1.000000e+00 0.000000e+00 0.000000e+00  -1.000000e+00 0.000000e+00 0.000000e+00  0.000000e+00 0.000000e+00 0.000000e+00  0.000000e+00 0.000000e+00 0.000000e+00  0.000000e+00 0.000000e+00 0.000000e+00  0.000000e+00 0.000000e+00 0.000000e+00  0.000000e+00 0.000000e+00 0.000000e+00  0.000000e+00 0.000000e+00 0.000000e+00  0.000000e+00 0.000000e+00 0.000000e+00  0.000000e+00 0.000000e+00 0.000000e+00  0.000000e+00 0.000000e+00 0.000000e+00  0.000000e+00 0.000000e+00 0.000000e+00  0.000000e+00 0.000000e+00 0.000000e+00  0.000000e+00 0.000000e+00 0.000000e+00  0.000000e+00 0.000000e+00 0.000000e+00  0.000000e+00 0.000000e+00 0.000000e+00  0.000000e+00 0.000000e+00 0.000000e+00  0.000000e+00 0.000000e+00 0.000000e+00  0.000000e+00 0.000000e+00 0.000000e+00  0.000000e+00 0.000000e+00 0.000000e+00  0.000000e+00 0.000000e+00 0.000000e+00  0.000000e+00 0.000000e+00 0.000000e+00  1.079382e+00 -1.897733e-02 0.000000e+00  1.508208e+00 -5.176020e-03 0.000000e+00  1.113262e+00 2.269455e-02 0.000000e+00  0.000000e+00 0.000000e+00 0.000000e+00  0.000000e+00 0.000000e+00 0.000000e+00  0.000000e+00 0.000000e+00 0.000000e+00  0.000000e+00 0.000000e+00 0.000000e+00  0.000000e+00 0.000000e+00 0.000000e+00  0.000000e+00 0.000000e+00 0.000000e+00  0.000000e+00 0.000000e+00 0.000000e+00  0.000000e+00 0.000000e+00 0.000000e+00  0.000000e+00 0.000000e+00 0.000000e+00  0.000000e+00 0.000000e+00 0.000000e+00  0.000000e+00 0.000000e+00 0.000000e+00  0.000000e+00 0.000000e+00 0.000000e+00  0.000000e+00 0.000000e+00 0.000000e+00  0.000000e+00 0.000000e+00 0.000000e+00  0.000000e+00 0.000000e+00 0.000000e+00  0.000000e+00 0.000000e+00 0.000000e+00  0.000000e+00 0.000000e+00 0.000000e+00  0.000000e+00 0.000000e+00 0.000000e+00  0.000000e+00 0.000000e+00 0.000000e+00  0.000000e+00 0.000000e+00 0.000000e+00  0.000000e+00 0.000000e+00 0.000000e+00  1.125000e+00 0.000000e+00 0.000000e+00  1.500000e+00 0.000000e+00 0.000000e+00  1.125000e+00 0.000000e+00 0.000000e+00  -5.000023e-01 -8.660241e-01 0.000000e+00  -8.660241e-01 -5.000023e-01 0.000000e+00  -8.660241e-01 5.000023e-01 0.000000e+00  -5.000023e-01 8.660241e-01 0.000000e+00  5.000023e-01 8.660241e-01 0.000000e+00  8.660241e-01 5.000023e-01 0.000000e+00  8.660241e-01 -5.000023e-01 0.000000e+00  5.000023e-01 -8.660241e-01 0.000000e+00  3.974563e-01 -4.655182e-01 0.000000e+00  1.816647e+00 -2.701172e-01 0.000000e+00  1.510565e+00 2.576267e-01 0.000000e+00  1.014769e+00 9.334380e-02 0.000000e+00  1.509481e+00 4.143472e-01 0.000000e+00  1.563736e+00 3.044227e-01 0.000000e+00  1.541271e+00 -4.779048e-02 0.000000e+00  1.679803e+00 2.165531e-02 0.000000e+00  1.519176e+00 -4.223781e-01 0.000000e+00  1.162370e+00 -4.609555e-01 0.000000e+00  1.482724e+00 -4.022421e-02 0.000000e+00  1.677986e+00 7.946302e-01 0.000000e+00  1.352125e+00 2.903505e-01 0.000000e+00  1.300709e+00 1.154113e-01 0.000000e+00  1.475579e+00 -1.431970e-01 0.000000e+00  1.910459e+00 -1.308759e-01 0.000000e+00  1.633193e+00 1.936989e-01 0.000000e+00  1.446381e+00 -4.767176e-02 0.000000e+00  9.091799e-01 -3.725573e-02 0.000000e+00  1.286969e+00 1.009941e-01 0.000000e+00  1.211160e+00 -2.333369e-01 0.000000e+00  9.024910e-01 9.879282e-02 0.000000e+00  -2.314739e-01 -1.606940e-01 0.000000e+00  1.318055e+00 7.190610e-02 0.000000e+00  3.416004e-01 1.035377e-01 0.000000e+00  -6.367410e-03 -6.137084e-03 0.000000e+00  1.136926e+00 3.956848e-02 0.000000e+00  1.414560e+00 -3.422681e-02 0.000000e+00  1.030181e+00 9.253060e-02 0.000000e+00  1.869612e+00 -3.494176e-01 0.000000e+00  1.038595e+00 -5.665950e-02 0.000000e+00  1.010095e+00 -1.089234e-02 0.000000e+00  1.293126e+00 -7.869382e-02 0.000000e+00  9.133942e-01 1.274275e-01 0.000000e+00  1.186202e+00 1.395081e-02 0.000000e+00  9.311689e-01 -1.694853e-01 0.000000e+00  1.354771e+00 -2.261146e-02 0.000000e+00  1.523239e+00 2.536676e-01 0.000000e+00  1.305917e+00 -7.125684e-02 0.000000e+00  9.936795e-01 1.217380e-02 0.000000e+00  9.949862e-01 7.821247e-02 0.000000e+00  7.513271e-01 3.543434e-02 0.000000e+00  1.159593e+00 9.797099e-02 0.000000e+00  8.410541e-01 -3.905005e-02 0.000000e+00  1.189117e+00 -3.604658e-02 0.000000e+00  1.025044e+00 -7.403957e-02 0.000000e+00  9.570895e-01 -1.562182e-01 0.000000e+00  1.125699e+00 1.715341e-02 0.000000e+00  9.452381e-01 4.349864e-02 0.000000e+00  9.755687e-01 -4.445583e-02 0.000000e+00  2.807548e-02 7.627400e-02 0.000000e+00  8.836146e-01 3.732004e-01 0.000000e+00  1.004365e+00 -1.663078e-01 0.000000e+00  1.501835e+00 -5.350780e-02 0.000000e+00  9.129079e-01 -1.096927e-02 0.000000e+00  1.338978e+00 -5.679771e-02 0.000000e+00  1.566039e+00 -1.216453e-01 0.000000e+00  1.202470e+00 -2.794762e-01 0.000000e+00  1.504202e+00 9.893011e-02 0.000000e+00  -1.833830e-01 1.340927e-01 0.000000e+00  1.508363e+00 4.477706e-01 0.000000e+00  6.871910e-01 1.762103e-02 0.000000e+00  1.734044e+00 3.567978e-01 0.000000e+00  9.187373e-01 6.767455e-02 0.000000e+00  1.134673e+00 -9.079245e-02 0.000000e+00  8.202514e-01 -2.424814e-02 0.000000e+00  1.117671e+00 2.142800e-01 0.000000e+00  9.354104e-01 2.964683e-02 0.000000e+00  1.849930e+00 5.622709e-01 0.000000e+00  1.433128e+00 2.687835e-01 0.000000e+00  1.600135e+00 -5.270998e-01 0.000000e+00  1.100059e+00 -5.185373e-02 0.000000e+00  8.147635e-01 -1.397600e-01 0.000000e+00  1.488275e+00 2.234459e-01 0.000000e+00  2.004698e+00 3.792630e-01 0.000000e+00  2.000900e+00 2.821610e-01 0.000000e+00  2.008999e+00 -1.957727e-01 0.000000e+00  1.779855e+00 -9.912831e-01 0.000000e+00  1.296966e+00 4.543533e-01 0.000000e+00  7.567245e-01 1.846061e-02 0.000000e+00  1.160548e+00 -2.247456e-01 0.000000e+00  1.679866e+00 5.978359e-01 0.000000e+00  5.934119e-01 1.345352e-01 0.000000e+00  8.151573e-01 3.443983e-03 0.000000e+00  1.281399e+00 8.000551e-04 0.000000e+00  1.503100e+00 -2.718726e-02 0.000000e+00  1.393766e+00 1.459767e-02 0.000000e+00  5.581284e-01 -1.353320e-02 0.000000e+00  5.328151e-01 -1.479916e-02 0.000000e+00  0.000000e+00 0.000000e+00 0.000000e+00  9.245846e-01 -4.190752e-02 0.000000e+00  7.311478e-01 -8.883576e-02 0.000000e+00  0.000000e+00 0.000000e+00 0.000000e+00  5.602654e-01 7.431519e-02 0.000000e+00  4.914203e-01 3.307350e-02 0.000000e+00  0.000000e+00 0.000000e+00 0.000000e+00  1.028134e+00 5.628924e-02 0.000000e+00  6.562500e-01 0.000000e+00 0.000000e+00  1.837660e+00 6.685177e-02 0.000000e+00  1.243787e+00 1.574080e-02 0.000000e+00  1.394104e+00 -3.913720e-02 0.000000e+00  1.160553e+00 1.415614e-01 0.000000e+00  1.274135e+00 6.276877e-02 0.000000e+00  7.521248e-01 -1.162353e-01 0.000000e+00  -1.330494e-02 -3.609713e-01 0.000000e+00  1.400531e+00 -2.911483e-01 0.000000e+00  2.004511e+00 3.118228e-01 0.000000e+00  1.551598e+00 2.898913e-03 0.000000e+00  1.386590e+00 -6.857415e-02 0.000000e+00  1.549477e+00 -1.337164e-01 0.000000e+00  1.542517e+00 -1.117774e-01 0.000000e+00  9.507921e-01 -4.544802e-02 0.000000e+00  6.174959e-01 -1.895612e-02 0.000000e+00  1.213412e+00 -1.023828e-01 0.000000e+00  1.216802e+00 -8.386510e-02 0.000000e+00  -2.072082e-02 2.873108e-01 0.000000e+00  1.187976e+00 5.353721e-01 0.000000e+00  6.904056e-01 7.707584e-01 0.000000e+00  1.460629e+00 -3.696848e-02 0.000000e+00  1.222004e+00 -3.091847e-02 0.000000e+00  1.365545e+00 -1.584630e-02 0.000000e+00  1.242038e+00 -3.496757e-02 0.000000e+00  1.434397e+00 -2.148138e-02 0.000000e+00  1.139988e+00 4.881724e-02 0.000000e+00  1.594898e+00 -6.328742e-02 0.000000e+00  1.529307e+00 5.700597e-02 0.000000e+00  1.094214e+00 -7.838540e-02 0.000000e+00  9.062994e-01 -4.579596e-01 0.000000e+00  1.166187e+00 -1.546537e-01 0.000000e+00  1.702492e+00 -1.797978e-01 0.000000e+00  1.404672e+00 -2.365290e-01 0.000000e+00  8.766164e-01 8.013954e-01 0.000000e+00  6.486515e-01 5.610990e-01 0.000000e+00  -7.071068e-01 -7.071068e-01 0.000000e+00  -5.827914e-03 1.789723e-01 0.000000e+00  -5.942543e-02 2.079075e-01 0.000000e+00  2.588197e-01 9.659256e-01 0.000000e+00  -3.402939e-02 3.176020e-02 0.000000e+00  8.765136e-01 -4.138705e-02 0.000000e+00  1.369025e+00 -2.660528e-01 0.000000e+00  1.473434e+00 -2.762899e-02 0.000000e+00  1.364968e+00 2.496259e-01 0.000000e+00  1.604860e+00 1.638419e-01 0.000000e+00  1.634046e+00 4.261137e-01 0.000000e+00  9.498712e-01 1.223616e-01 0.000000e+00  1.071152e+00 1.807230e-01 0.000000e+00  3.464159e-01 6.675964e-03 0.000000e+00  3.294379e-01 -2.781380e-03 0.000000e+00  0.000000e+00 0.000000e+00 0.000000e+00  1.176605e+00 5.808440e-02 0.000000e+00  9.346388e-01 4.761788e-02 0.000000e+00  1.262489e+00 2.604616e-01 0.000000e+00  8.551877e-01 -2.484346e-02 0.000000e+00  1.429429e+00 1.077900e-01 0.000000e+00  3.607979e-01 2.715788e-03 0.000000e+00  4.792567e-01 -2.653087e-02 0.000000e+00  4.432440e-01 2.269813e-03 0.000000e+00  0.000000e+00 0.000000e+00 0.000000e+00  1.040776e+00 -6.531484e-04 0.000000e+00  1.488843e+00 2.450627e-01 0.000000e+00  7.944616e-01 -8.954719e-02 0.000000e+00  1.163229e+00 -2.731968e-01 0.000000e+00  6.132744e-01 -5.261499e-02 0.000000e+00  3.756533e-01 1.089655e-02 0.000000e+00  0.000000e+00 0.000000e+00 0.000000e+00  1.606336e+00 1.634568e-01 0.000000e+00  1.698539e+00 2.332997e-01 0.000000e+00  1.037310e+00 5.853946e-02 0.000000e+00  1.534456e+00 1.162307e-01 0.000000e+00  3.950782e-01 -1.255762e-03 0.000000e+00  6.978754e-01 -4.195329e-02 0.000000e+00  0.000000e+00 0.000000e+00 0.000000e+00  1.296964e+00 -3.491865e-01 0.000000e+00  1.522143e+00 -3.601346e-01 0.000000e+00  1.102825e+00 -1.180207e-01 0.000000e+00  1.436772e+00 -2.435649e-01 0.000000e+00  7.419829e-01 -1.300151e-02 0.000000e+00  1.564473e+00 -1.374931e-01 0.000000e+00  1.518790e+00 -1.514167e-01 0.000000e+00  8.899609e-01 -7.737071e-03 0.000000e+00  8.640400e-01 -2.049679e-02 0.000000e+00  0.000000e+00 0.000000e+00 0.000000e+00  1.448277e+00 1.419633e-01 0.000000e+00  1.358088e+00 2.365777e-01 0.000000e+00  6.770185e-01 1.626086e-02 0.000000e+00  6.952791e-01 5.772120e-03 0.000000e+00  0.000000e+00 0.000000e+00 0.000000e+00  1.288055e+00 1.291101e-02 0.000000e+00  1.310417e+00 1.926910e-01 0.000000e+00  7.090770e-01 2.355124e-02 0.000000e+00  7.512795e-01 2.751563e-02 0.000000e+00  0.000000e+00 0.000000e+00 0.000000e+00  1.095419e+00 7.796116e-02 0.000000e+00  1.211180e+00 2.398357e-01 0.000000e+00  1.168409e+00 1.350371e-01 0.000000e+00  1.396801e+00 2.106560e-01 0.000000e+00  1.097779e+00 -1.621704e-01 0.000000e+00  9.432942e-01 -3.989633e-02 0.000000e+00  0.000000e+00 0.000000e+00 0.000000e+00  1.598706e+00 -5.764208e-02 0.000000e+00  1.592402e+00 -5.108902e-01 0.000000e+00  7.135943e-01 -1.632089e-02 0.000000e+00  7.009522e-01 1.049428e-03 0.000000e+00  0.000000e+00 0.000000e+00 0.000000e+00  9.760630e-01 3.571251e-02 0.000000e+00  1.241501e+00 -5.815855e-02 0.000000e+00  1.356451e+00 -2.430083e-01 0.000000e+00  1.500125e+00 -2.787396e-01 0.000000e+00  9.003128e-01 5.526301e-02 0.000000e+00  1.018030e+00 6.636081e-02 0.000000e+00  0.000000e+00 0.000000e+00 0.000000e+00  1.467550e+00 -2.220940e-01 0.000000e+00  1.499814e+00 -5.272413e-01 0.000000e+00  1.455959e+00 -2.517120e-01 0.000000e+00  1.503906e+00 -2.574549e-01 0.000000e+00  7.718319e-01 -1.099578e-02 0.000000e+00  7.222008e-01 -2.944914e-02 0.000000e+00  0.000000e+00 0.000000e+00 0.000000e+00  1.157867e+00 -1.264229e-01 0.000000e+00  1.558404e+00 -2.714646e-01 0.000000e+00  1.676557e+00 -1.163522e-01 0.000000e+00  1.138051e+00 -7.897942e-03 0.000000e+00  1.156383e+00 -3.454719e-02 0.000000e+00  0.000000e+00 0.000000e+00 0.000000e+00  8.047633e-01 6.255329e-02 0.000000e+00  1.490501e+00 1.152482e-01 0.000000e+00  1.633329e+00 3.529771e-01 0.000000e+00  7.828720e-01 -5.772387e-03 0.000000e+00  7.967296e-01 2.943619e-02 0.000000e+00  0.000000e+00 0.000000e+00 0.000000e+00  1.256179e+00 6.823961e-02 0.000000e+00  3.932845e-01 -2.849967e-02 0.000000e+00  0.000000e+00 0.000000e+00 0.000000e+00  1.360313e+00 -1.648196e-02 0.000000e+00  1.124772e+00 -6.123799e-02 0.000000e+00  4.023406e-01 -3.924554e-02 0.000000e+00  7.429714e-01 1.323970e-02 0.000000e+00  0.000000e+00 0.000000e+00 0.000000e+00  1.508865e+00 -6.746458e-02 0.000000e+00  1.209377e+00 5.071034e-02 0.000000e+00  1.494145e+00 9.745983e-02 0.000000e+00  7.151933e-01 2.963335e-02 0.000000e+00  6.671217e-01 3.214324e-02 0.000000e+00  0.000000e+00 0.000000e+00 0.000000e+00  1.407884e+00 2.067782e-01 0.000000e+00  1.073361e+00 1.024472e-01 0.000000e+00  1.290273e+00 1.939622e-01 0.000000e+00  6.219468e-01 2.437824e-02 0.000000e+00  5.942987e-01 1.203660e-02 0.000000e+00  0.000000e+00 0.000000e+00 0.000000e+00  1.139404e+00 1.088026e-01 0.000000e+00  9.819336e-01 5.264527e-02 0.000000e+00  6.537446e-01 1.882360e-04 0.000000e+00  7.301638e-01 -5.950570e-02 0.000000e+00  6.793820e-01 -3.017271e-02 0.000000e+00  0.000000e+00 0.000000e+00 0.000000e+00  1.643734e+00 3.954984e-01 0.000000e+00  1.464488e+00 3.484341e-01 0.000000e+00  1.714994e+00 1.908260e-01 0.000000e+00  1.479581e+00 2.189637e-02 0.000000e+00  5.949624e-01 -1.093764e-02 0.000000e+00  0.000000e+00 0.000000e+00 0.000000e+00  9.798343e-01 -2.683162e-02 0.000000e+00  1.237674e+00 -9.120394e-02 0.000000e+00  1.271241e+00 -3.644330e-02 0.000000e+00  1.239845e+00 -2.007511e-02 0.000000e+00  0.000000e+00 0.000000e+00 0.000000e+00  1.518572e+00 -9.945980e-02 0.000000e+00  1.461224e+00 -1.816590e-01 0.000000e+00  0.000000e+00 0.000000e+00 0.000000e+00  1.769844e+00 -2.722963e-01 0.000000e+00  1.266706e+00 6.597731e-01 0.000000e+00  1.252618e+00 4.807906e-01 0.000000e+00  1.254356e+00 -1.071751e-02 0.000000e+00  0.000000e+00 0.000000e+00 0.000000e+00  1.548421e+00 1.734940e-01 0.000000e+00  9.892787e-01 -2.521849e-01 0.000000e+00  -1.432754e-01 -3.756628e-01 0.000000e+00  8.808887e-01 -9.358457e-02 0.000000e+00  1.285650e+00 -1.505100e-02 0.000000e+00  1.200750e+00 1.909407e-01 0.000000e+00  1.094659e+00 8.990607e-02 0.000000e+00  0.000000e+00 0.000000e+00 0.000000e+00  1.032322e+00 8.920606e-02 0.000000e+00  1.134944e+00 1.271004e-02 0.000000e+00  0.000000e+00 0.000000e+00 0.000000e+00  -1.407980e-01 2.011031e-01 0.000000e+00  -2.310641e-01 4.402806e-01 0.000000e+00  -1.944657e-01 2.652129e-01 0.000000e+00  -2.389254e-01 8.516234e-04 0.000000e+00  8.948079e-01 1.490353e-02 0.000000e+00  8.660633e-01 6.901247e-02 0.000000e+00  7.991847e-01 2.903349e-02 0.000000e+00  1.672125e+00 4.237748e-01 0.000000e+00  1.449136e+00 3.004656e-01 0.000000e+00  1.628800e+00 2.504509e-01 0.000000e+00  1.487745e+00 3.454621e-01 0.000000e+00  5.531191e-01 3.355582e-03 0.000000e+00  6.003661e-01 3.059976e-02 0.000000e+00  0.000000e+00 0.000000e+00 0.000000e+00  6.734688e-01 -2.153747e-02 0.000000e+00  6.505563e-01 -2.008111e-02 0.000000e+00  0.000000e+00 0.000000e+00 0.000000e+00  1.332557e+00 -1.995273e-02 0.000000e+00  4.804279e-01 -9.013499e-03 0.000000e+00  4.954164e-01 -1.369944e-02 0.000000e+00  0.000000e+00 0.000000e+00 0.000000e+00  9.592375e-01 -2.338660e-02 0.000000e+00  6.961039e-01 -9.056104e-03 0.000000e+00  8.690773e-01 -3.096288e-02 0.000000e+00  1.173652e+00 1.875444e-01 0.000000e+00  1.014151e+00 2.149200e-02 0.000000e+00  1.392435e+00 4.635208e-01 0.000000e+00  5.114754e-01 1.446674e-02 0.000000e+00  5.437481e-01 1.013986e-02 0.000000e+00  0.000000e+00 0.000000e+00 0.000000e+00  1.273438e+00 1.074877e-01 0.000000e+00  1.143425e+00 -1.535875e-02 0.000000e+00  1.782734e+00 1.219840e-01 0.000000e+00  1.736056e+00 8.905508e-04 0.000000e+00  9.636489e-01 7.061607e-02 0.000000e+00  1.184988e+00 1.796518e-01 0.000000e+00  1.109044e+00 -3.659529e-02 0.000000e+00  1.141757e+00 -5.171704e-02 0.000000e+00  -9.963430e-02 3.119614e-02 0.000000e+00  -1.345484e-01 3.936117e-01 0.000000e+00  -2.588197e-01 9.659256e-01 0.000000e+00  -2.018125e-01 -9.307546e-02 0.000000e+00  1.517384e+00 -7.013354e-02 0.000000e+00  1.407702e+00 -1.005881e-01 0.000000e+00  2.581555e-01 -3.733408e-03 0.000000e+00  2.571058e-01 1.096985e-02 0.000000e+00  0.000000e+00 0.000000e+00 0.000000e+00  1.685337e+00 -1.604756e-01 0.000000e+00  1.140708e+00 -1.738777e-01 0.000000e+00  1.522968e+00 -3.908130e-01 0.000000e+00  3.942950e-01 -2.002457e-02 0.000000e+00  0.000000e+00 0.000000e+00 0.000000e+00  4.668434e-01 4.318884e-02 0.000000e+00  1.152309e+00 1.859471e-01 0.000000e+00  8.920941e-01 -8.597881e-03 0.000000e+00  1.135933e+00 -6.751690e-02 0.000000e+00  1.231875e+00 2.386013e-01 0.000000e+00  1.806517e+00 3.198148e-01 0.000000e+00  1.547851e+00 2.590412e-01 0.000000e+00  1.031583e+00 1.152554e-01 0.000000e+00  1.530354e+00 -4.667771e-01 0.000000e+00  1.651298e+00 -1.956670e-01 0.000000e+00  1.676710e+00 -5.862233e-01 0.000000e+00  1.613019e+00 3.888384e-01 0.000000e+00  4.670470e-01 1.539655e-01 0.000000e+00  -7.753488e-02 2.276977e-01 0.000000e+00  -7.071068e-01 7.071068e-01 0.000000e+00  1.304122e+00 3.696358e-01 0.000000e+00  1.674206e+00 6.226056e-01 0.000000e+00  6.401368e-01 -1.748959e-02 0.000000e+00  6.096322e-01 -1.388118e-02 0.000000e+00  0.000000e+00 0.000000e+00 0.000000e+00  1.224112e+00 -6.693244e-02 0.000000e+00  7.950431e-01 -1.929688e-02 0.000000e+00  1.301523e+00 -5.726321e-02 0.000000e+00  1.535628e+00 -1.060057e-01 0.000000e+00  1.465692e+00 -1.783261e-01 0.000000e+00  1.278974e+00 -4.225581e-01 0.000000e+00  4.221318e-01 -4.863472e-02 0.000000e+00  3.432532e-01 -3.810874e-02 0.000000e+00  0.000000e+00 0.000000e+00 0.000000e+00  7.227593e-01 -5.523158e-02 0.000000e+00  9.262478e-01 -1.101102e-01 0.000000e+00  1.193916e+00 -2.883223e-01 0.000000e+00  1.028955e+00 -1.301143e-01 0.000000e+00  1.527232e+00 1.822210e-01 0.000000e+00  1.000663e+00 1.162980e-01 0.000000e+00  7.414029e-01 1.229729e-01 0.000000e+00  0.000000e+00 0.000000e+00 0.000000e+00  1.525486e+00 3.366236e-01 0.000000e+00  8.160039e-01 1.842052e-01 0.000000e+00  1.742356e+00 2.461319e-01 0.000000e+00  1.824076e+00 2.193868e-01 0.000000e+00  1.981822e+00 3.211448e-01 0.000000e+00  1.889126e+00 2.293756e-01 0.000000e+00  2.265762e+00 9.731922e-02 0.000000e+00  2.568195e+00 -8.683534e-02 0.000000e+00  1.482462e+00 5.303391e-01 0.000000e+00  4.697425e-01 3.478773e-02 0.000000e+00  0.000000e+00 0.000000e+00 0.000000e+00  6.194243e-01 2.580036e-02 0.000000e+00  1.819659e+00 -4.439825e-03 0.000000e+00  6.260789e-01 -4.111117e-02 0.000000e+00  0.000000e+00 0.000000e+00 0.000000e+00  1.182855e+00 -5.822795e-03 0.000000e+00  1.627565e+00 -3.288816e-01 0.000000e+00  1.462440e+00 4.829646e-03 0.000000e+00  1.406250e+00 0.000000e+00 0.000000e+00  5.099611e-01 1.432131e-01 0.000000e+00  5.805187e-01 1.890336e-01 0.000000e+00  7.071068e-01 7.071068e-01 0.000000e+00  9.721507e-01 2.260157e-01 0.000000e+00  9.485083e-01 -6.395876e-01 0.000000e+00  8.668404e-01 -4.240653e-01 0.000000e+00  2.588197e-01 -9.659256e-01 0.000000e+00  1.281017e+00 -8.178361e-01 0.000000e+00  1.522344e+00 -1.399706e+00 0.000000e+00  1.471309e+00 -1.189595e-01 0.000000e+00  1.189640e+00 5.412829e-01 0.000000e+00  1.223431e+00 2.635745e-01 0.000000e+00  2.526681e-01 -1.042436e-01 0.000000e+00  -1.019171e-01 -2.705625e-01 0.000000e+00  1.472991e+00 2.287761e-01 0.000000e+00  7.779740e-01 -1.350214e-01 0.000000e+00  6.690115e-01 -6.471775e-02 0.000000e+00  0.000000e+00 0.000000e+00 0.000000e+00  1.111577e+00 -9.781031e-02 0.000000e+00  6.562500e-01 0.000000e+00 0.000000e+00  8.989712e-01 1.736682e-01 0.000000e+00  1.744204e+00 7.708989e-01 0.000000e+00  1.864891e+00 5.591593e-01 0.000000e+00  1.068324e+00 2.107997e-01 0.000000e+00  -2.606352e-01 -4.889380e-01 0.000000e+00  1.172356e+00 -2.382972e-01 0.000000e+00  1.395782e+00 -1.127674e-01 0.000000e+00  1.406250e+00 0.000000e+00 0.000000e+00  1.404246e+00 -5.130319e-01 0.000000e+00  1.556782e+00 -4.204326e-01 0.000000e+00  1.334118e+00 -3.613069e-01 0.000000e+00  2.029491e+00 -1.300798e+00 0.000000e+00  7.071068e-01 -7.071068e-01 0.000000e+00  1.991563e+00 3.231839e-01 0.000000e+00  3.088158e-01 -3.959472e-01 0.0000