<?xml version="1.0"?>
<VTKFile type="UnstructuredGrid"  version="0.1"  >
<UnstructuredGrid>
<Piece  NumberOfPoints="525" NumberOfCells="924">
<Points>
<DataArray  type="Float32"  NumberOfComponents="3"  format="ascii">0 0 0  2.2 0 0  2.2 0.41 0  0 0.41 0  0.15 0.2 0  0.25 0.2 0  0.2 0.15 0  0.2 0.25 0  0.104762 0 0  0.209524 0 0  0.314286 0 0  0.419048 0 0  0.52381 0 0  0.628571 0 0  0.733333 0 0  0.838095 0 0  0.942857 0 0  1.04762 0 0  1.15238 0 0  1.25714 0 0  1.3619 0 0  1.46667 0 0  1.57143 0 0  1.67619 0 0  1.78095 0 0  1.88571 0 0  1.99048 0 0  2.09524 0 0  2.2 0.1025 0  2.2 0.205 0  2.2 0.3075 0  2.1 0.41 0  2 0.41 0  1.9 0.41 0  1.8 0.41 0  1.7 0.41 0  1.6 0.41 0  1.5 0.41 0  1.4 0.41 0  1.3 0.41 0  1.2 0.41 0  1.1 0.41 0  1 0.41 0  0.9 0.41 0  0.8 0.41 0  0.7 0.41 0  0.6 0.41 0  0.5 0.41 0  0.4 0.41 0  0.3 0.41 0  0.2 0.41 0  0.1 0.41 0  0 0.3075 0  0 0.205 0  0 0.1025 0  0.156699 0.225 0  0.175 0.243301 0  0.225 0.243301 0  0.243301 0.225 0  0.243301 0.175 0  0.225 0.156699 0  0.175 0.156699 0  0.156699 0.175 0  0.352033 0.262216 0  1.04579 0.252253 0  1.24065 0.243419 0  0.985775 0.171509 0  1.30324 0.187395 0  0.890988 0.190768 0  1.39085 0.202767 0  0.801464 0.204685 0  1.49904 0.204666 0  0.704267 0.202289 0  1.60238 0.204951 0  0.487789 0.19191 0  1.72935 0.219637 0  1.83335 0.187427 0  2.03359 0.193642 0  0.314663 0.307348 0  0.249039 0.333583 0  2.12147 0.253405 0  2.06373 0.0836837 0  0.0734726 0.267055 0  0.143989 0.0677174 0  0.0613613 0.33781 0  0.299628 0.236829 0  0.527114 0.295386 0  0.262384 0.26549 0  0.275777 0.18341 0  1.74578 0.330928 0  1.84001 0.302448 0  1.64998 0.313838 0  0.648421 0.302367 0  1.54544 0.308508 0  0.755686 0.306156 0  1.42668 0.314809 0  0.870524 0.298596 0  1.22553 0.112785 0  1.05603 0.147372 0  0.969346 0.329867 0  1.32527 0.276284 0  2.02914 0.29511 0  1.88168 0.119486 0  1.79545 0.104842 0  1.35688 0.0892539 0  1.69041 0.105324 0  0.914199 0.0955566 0  1.58234 0.102923 0  0.61843 0.10815 0  1.47999 0.101161 0  0.725217 0.104273 0  0.821727 0.102306 0  1.96725 0.105778 0  0.418624 0.241547 0  0.135226 0.239087 0  1.14921 0.314841 0  0.404508 0.333259 0  0.590155 0.206269 0  2.12554 0.150731 0  1.93166 0.22436 0  0.104689 0.190046 0  0.267856 0.0744753 0  0.269368 0.221581 0  0.434446 0.114927 0  1.0089 0.0793381 0  0.953023 0.246698 0  1.25853 0.33355 0  1.05268 0.340828 0  2.1369 0.067383 0  0.522398 0.112537 0  1.3421 0.348929 0  0.215186 0.289473 0  0.203197 0.335348 0  1.13984 0.190728 0  1.93813 0.330504 0  1.10505 0.0883705 0  0.341988 0.0824728 0  0.253113 0.138035 0  0.291932 0.131907 0  0.203713 0.102439 0  0.150375 0.134668 0  0.151494 0.309119 0  0.354384 0.17896 0  0.0685367 0.100776 0  0.424128 0.180088 0  0.474925 0.0568661 0  2.10843 0.347669 0  2.16073 0.280452 0  2.16073 0.229202 0  2.2 0.25625 0  2.07949 0.0418418 0  2.02711 0.0418418 0  2.04286 0 0  0.176756 0.0338587 0  0.124375 0.0338587 0  0.157143 0 0  0.0806807 0.373905 0  0.0306807 0.373905 0  0.05 0.41 0  0.0306807 0.322655 0  0 0.35875 0  0.281851 0.320466 0  0.27452 0.371791 0  0.307331 0.358674 0  0.067417 0.302432 0  0.0367363 0.287277 0  0.307146 0.272089 0  0.325831 0.249523 0  0.333348 0.284782 0  0.255711 0.299536 0  0.288524 0.286419 0  2.07531 0.274257 0  2.03137 0.244376 0  2.07753 0.223523 0  2.01549 0.0947309 0  1.97886 0.052889 0  2.00042 0.14971 0  2.04866 0.138663 0  0.472869 0.268466 0  0.453206 0.216728 0  0.507451 0.243648 0  2.16277 0.177866 0  2.16277 0.126615 0  2.2 0.15375 0  1.90667 0.171923 0  1.88251 0.205894 0  1.85752 0.153456 0  1.88583 0.263404 0  1.83668 0.244938 0  0.604293 0.15721 0  0.647211 0.204279 0  0.661349 0.15522 0  0.359586 0.320304 0  0.37827 0.297737 0  0.155113 0.241194 0  0.145962 0.232044 0  0.164645 0.235355 0  0.259539 0.179205 0  0.262888 0.191705 0  0.248296 0.187059 0  0.281006 0.251159 0  1.0209 0.15944 0  1.05091 0.199813 0  1.01578 0.211881 0  1.26438 0.15009 0  1.23309 0.178102 0  1.27195 0.215407 0  1.29121 0.101019 0  1.33006 0.138324 0  0.928528 0.0477783 0  0.876147 0.0477783 0  0.890476 0 0  0.902594 0.143162 0  0.949987 0.133533 0  0.938381 0.181138 0  0.867963 0.0989313 0  0.856357 0.146537 0  0.829911 0.051153 0  1.41178 0.0446269 0  1.35939 0.0446269 0  1.41429 0 0  1.37386 0.14601 0  1.34705 0.195081 0  1.41844 0.0952074 0  1.43542 0.151964 0  1.47333 0.0505805 0  0.77753 0.051153 0  0.785714 0 0  0.811595 0.153496 0  0.846226 0.197726 0  0.773472 0.10329 0  0.76334 0.154479 0  0.729275 0.0521365 0  1.52571 0.0505805 0  1.51905 0 0  1.48951 0.152913 0  1.44494 0.203716 0  1.53117 0.102042 0  1.54069 0.153795 0  1.57689 0.0514615 0  1.9804 0.259735 0  1.98262 0.209001 0  1.82001 0.356224 0  1.87 0.356224 0  1.85 0.41 0  1.78468 0.261043 0  1.78135 0.203532 0  1.72289 0.370464 0  1.77289 0.370464 0  1.75 0.41 0  1.7929 0.316688 0  1.73757 0.275282 0  1.62499 0.361919 0  1.67499 0.361919 0  1.65 0.41 0  1.69788 0.322383 0  1.68966 0.266738 0  1.62618 0.259394 0  1.66586 0.212294 0  0.624211 0.356183 0  0.674211 0.356183 0  0.65 0.41 0  0.619288 0.254318 0  0.676344 0.252328 0  1.52272 0.359254 0  1.57272 0.359254 0  1.55 0.41 0  1.59771 0.311173 0  1.57391 0.256729 0  1.52224 0.256587 0  1.55071 0.204809 0  0.727843 0.358078 0  0.777843 0.358078 0  0.75 0.41 0  0.702053 0.304261 0  0.729977 0.254223 0  0.778575 0.25542 0  0.752865 0.203487 0  1.41334 0.362405 0  1.46334 0.362405 0  1.45 0.41 0  1.48606 0.311659 0  1.46286 0.259738 0  1.40876 0.258788 0  0.835262 0.354298 0  0.885262 0.354298 0  0.85 0.41 0  0.813105 0.302376 0  0.835994 0.25164 0  0.880756 0.244682 0  0.934673 0.369934 0  0.984673 0.369934 0  0.95 0.41 0  0.919935 0.314231 0  0.676894 0.0521365 0  0.680952 0 0  0.714742 0.153281 0  0.671824 0.106212 0  0.623501 0.054075 0  1.62927 0.0514615 0  1.62381 0 0  1.59236 0.153937 0  1.63638 0.104124 0  1.6464 0.155137 0  1.6833 0.052662 0  1.73568 0.052662 0  1.72857 0 0  1.70988 0.16248 0  1.74293 0.105083 0  1.7624 0.16224 0  1.7882 0.052421 0  1.84058 0.052421 0  1.83333 0 0  1.8144 0.146135 0  1.83857 0.112164 0  1.88369 0.059743 0  1.12461 0.36242 0  1.17461 0.36242 0  1.15 0.41 0  1.31425 0.231839 0  1.28296 0.259852 0  1.35806 0.239526 0  1.37597 0.295546 0  1.92648 0.052889 0  1.9381 0 0  1.92447 0.112632 0  1.94945 0.165069 0  0.352254 0.37163 0  0.402254 0.37163 0  0.35 0.41 0  0.513557 0.352693 0  0.563557 0.352693 0  0.55 0.41 0  0.587767 0.298876 0  0.558634 0.250827 0  0.538972 0.19909 0  0.452254 0.37163 0  0.45 0.41 0  0.465811 0.314323 0  0.411566 0.287403 0  0.385328 0.251881 0  0.119958 0.214566 0  0.0890808 0.22855 0  0.104349 0.253071 0  0.22452 0.371791 0  0.25 0.41 0  0.291071 0.0372376 0  0.23869 0.0372376 0  0.261905 0 0  0.265876 0.243536 0  0.256335 0.223291 0  0.252842 0.245245 0  0.284498 0.229205 0  1.03246 0.113355 0  0.997337 0.125424 0  0.961549 0.0874474 0  0.922006 0.218733 0  0.969399 0.209103 0  0.961184 0.288282 0  0.911774 0.272647 0  1.22926 0.371775 0  1.27927 0.371775 0  1.25 0.41 0  1.02634 0.375414 0  1.07634 0.375414 0  1.05 0.41 0  1.01101 0.335348 0  2.11607 0.0336915 0  2.16845 0.0336915 0  2.14762 0 0  2.16845 0.0849415 0  2.2 0.05125 0  2.10032 0.0755333 0  0.556277 0.159403 0  0.570414 0.110343 0  0.505093 0.152224 0  1.32105 0.379464 0  1.37105 0.379464 0  1.35 0.41 0  1.33369 0.312607 0  1.38439 0.331869 0  0.999406 0.249476 0  1.00757 0.29106 0  1.30031 0.34124 0  1.2919 0.304917 0  2.13122 0.109057 0  2.09464 0.117207 0  0.272572 0.202495 0  0.259684 0.21079 0  0.248296 0.212941 0  0.287702 0.21012 0  2.1235 0.202068 0  2.07956 0.172187 0  1.02826 0.039669 0  0.975878 0.039669 0  0.995238 0 0  1.04923 0.29654 0  1.10095 0.327835 0  1.0975 0.283547 0  0.57112 0.054075 0  0.576191 0 0  0.523104 0.0562685 0  1.24959 0.288485 0  1.20387 0.324195 0  1.19493 0.27913 0  0.238785 0.277481 0  0.232112 0.311528 0  0.226118 0.334465 0  0.201599 0.372674 0  1.14453 0.252784 0  1.19024 0.217074 0  1.09281 0.221491 0  0.209191 0.31241 0  0.220093 0.266387 0  0.243692 0.254395 0  0.235355 0.235355 0  0.478422 0.113732 0  0.461117 0.153419 0  1.91906 0.370252 0  1.96907 0.370252 0  1.95 0.41 0  1.98364 0.312807 0  2.01457 0.352555 0  1.88907 0.316476 0  1.9349 0.277432 0  1.18268 0.151757 0  1.09794 0.16905 0  1.12872 0.0441853 0  1.07634 0.0441853 0  1.1 0 0  1.05697 0.0838543 0  1.08054 0.117871 0  1.12244 0.139549 0  1.16529 0.100578 0  0.304922 0.078474 0  0.328137 0.0412364 0  0.380518 0.0412364 0  0.366667 0 0  0.388217 0.0986999 0  0.426747 0.0574635 0  0.31696 0.10719 0  0.279894 0.103191 0  0.272523 0.134971 0  0.260485 0.106255 0  0.228413 0.120237 0  0.214357 0.129569 0  0.239057 0.147367 0  1.30701 0.0446269 0  1.30952 0 0  1.24133 0.0563925 0  0.235785 0.0884571 0  1.18895 0.0563925 0  1.20476 0 0  0.206618 0.0512195 0  0.173851 0.0850782 0  0.0367363 0.236028 0  0 0.25625 0  0.264445 0.160722 0  0.248207 0.156517 0  0.235355 0.164645 0  0.283855 0.157658 0  0.130694 0.182523 0  0.127344 0.195023 0  0.151704 0.187059 0  0.127532 0.162357 0  0.153537 0.154834 0  0.0523445 0.197523 0  0.14336 0.274103 0  0.112483 0.288087 0  0.31508 0.181185 0  0.327006 0.207895 0  0.323158 0.155434 0  0.0866493 0.050388 0  0.0342684 0.050388 0  0.052381 0 0  0.0342684 0.101638 0  0 0.05125 0  0.421376 0.210817 0  0.455958 0.185999 0  0.429287 0.147508 0  0.106428 0.323464 0  0.353208 0.220588 0  0.106263 0.0842467 0  0.0342684 0.152888 0  0 0.15375 0  0.109456 0.117722 0  0.147182 0.101193 0  0.0866129 0.145411 0  0.162687 0.145684 0  0.164645 0.164645 0  0.348186 0.130716 0  0.386504 0.210254 0  0.389256 0.179524 0  0.394415 0.146944 0  0.125747 0.359559 0  0.175747 0.359559 0  0.15 0.41 0  0.177345 0.322233 0  0.142613 0.219544 0  0.151704 0.212941 0  0.499367 0.0284331 0  0.446986 0.0284331 0  0.471429 0 0  0.498661 0.0847016 0  0.454685 0.0858966 0  0.201856 0.126219 0  0.212941 0.151704 0  0.18334 0.299296 0  0.175187 0.142334 0  0.187059 0.151704 0  0.177044 0.118554 0  2.15421 0.327585 0  2.15421 0.378834 0  2.2 0.35875 0  2.10421 0.378834 0  2.15 0.41 0  2.05422 0.378
[...]
<PointData  Vectors="u"> 
<DataArray  type="Float32"  Name="u"  NumberOfComponents="3" format="ascii">0.000000e+00 0.000000e+00 0.000000e+00  0.000000e+00 0.000000e+00 0.000000e+00  0.000000e+00 0.000000e+00 0.000000e+00  0.000000e+00 0.000000e+00 0.000000e+00  0.000000e+00 -1.000000e+00 0.000000e+00  0.000000e+00 1.000000e+00 0.000000e+00  1.000000e+00 0.000000e+00 0.000000e+00  -1.000000e+00 0.000000e+00 0.000000e+00  0.000000e+00 0.000000e+00 0.000000e+00  0.000000e+00 0.000000e+00 0.000000e+00  0.000000e+00 0.000000e+00 0.000000e+00  0.000000e+00 0.000000e+00 0.000000e+00  0.000000e+00 0.000000e+00 0.000000e+00  0.000000e+00 0.000000e+00 0.000000e+00  0.000000e+00 0.000000e+00 0.000000e+00  0.000000e+00 0.000000e+00 0.000000e+00  0.000000e+00 0.000000e+00 0.000000e+00  0.000000e+00 0.000000e+00 0.000000e+00  0.000000e+00 0.000000e+00 0.000000e+00  0.000000e+00 0.000000e+00 0.000000e+00  0.000000e+00 0.000000e+00 0.000000e+00  0.000000e+00 0.000000e+00 0.000000e+00  0.000000e+00 0.000000e+00 0.000000e+00  0.000000e+00 0.000000e+00 0.000000e+00  0.000000e+00 0.000000e+00 0.000000e+00  0.000000e+00 0.000000e+00 0.000000e+00  0.000000e+00 0.000000e+00 0.000000e+00  0.000000e+00 0.000000e+00 0.000000e+00  9.284478e-01 -3.049259e-02 0.000000e+00  1.518388e+00 3.552669e-02 0.000000e+00  1.299828e+00 -1.833328e-02 0.000000e+00  0.000000e+00 0.000000e+00 0.000000e+00  0.000000e+00 0.000000e+00 0.000000e+00  0.000000e+00 0.000000e+00 0.000000e+00  0.000000e+00 0.000000e+00 0.000000e+00  0.000000e+00 0.000000e+00 0.000000e+00  0.000000e+00 0.000000e+00 0.000000e+00  0.000000e+00 0.000000e+00 0.000000e+00  0.000000e+00 0.000000e+00 0.000000e+00  0.000000e+00 0.000000e+00 0.000000e+00  0.000000e+00 0.000000e+00 0.000000e+00  0.000000e+00 0.000000e+00 0.000000e+00  0.000000e+00 0.000000e+00 0.000000e+00  0.000000e+00 0.000000e+00 0.000000e+00  0.000000e+00 0.000000e+00 0.000000e+00  0.000000e+00 0.000000e+00 0.000000e+00  0.000000e+00 0.000000e+00 0.000000e+00  0.000000e+00 0.000000e+00 0.000000e+00  0.000000e+00 0.000000e+00 0.000000e+00  0.000000e+00 0.000000e+00 0.000000e+00  0.000000e+00 0.000000e+00 0.000000e+00  0.000000e+00 0.000000e+00 0.000000e+00  1.125000e+00 0.000000e+00 0.000000e+00  1.500000e+00 0.000000e+00 0.000000e+00  1.125000e+00 0.000000e+00 0.000000e+00  -5.000023e-01 -8.660241e-01 0.000000e+00  -8.660241e-01 -5.000023e-01 0.000000e+00  -8.660241e-01 5.000023e-01 0.000000e+00  -5.000023e-01 8.660241e-01 0.000000e+00  5.000023e-01 8.660241e-01 0.000000e+00  8.660241e-01 5.000023e-01 0.000000e+00  8.660241e-01 -5.000023e-01 0.000000e+00  5.000023e-01 -8.660241e-01 0.000000e+00  2.629825e-02 -2.713016e-01 0.000000e+00  1.701060e+00 -4.146119e-01 0.000000e+00  1.577542e+00 3.009949e-01 0.000000e+00  9.335474e-01 -1.869122e-01 0.000000e+00  1.319885e+00 2.443888e-01 0.000000e+00  1.320823e+00 1.814947e-01 0.000000e+00  1.433922e+00 -8.638208e-02 0.000000e+00  1.725106e+00 3.611539e-01 0.000000e+00  1.628359e+00 -3.713724e-01 0.000000e+00  1.410810e+00 -9.367275e-02 0.000000e+00  1.629631e+00 1.089576e-02 0.000000e+00  1.224081e+00 5.804982e-01 0.000000e+00  1.514832e+00 2.430257e-01 0.000000e+00  1.415608e+00 -1.389042e-01 0.000000e+00  1.630667e+00 8.569407e-02 0.000000e+00  1.805685e+00 -2.537700e-02 0.000000e+00  1.610710e+00 2.118722e-01 0.000000e+00  1.460172e+00 2.123573e-01 0.000000e+00  9.055143e-01 4.149304e-02 0.000000e+00  1.283770e+00 8.154684e-02 0.000000e+00  1.230259e+00 -2.338930e-01 0.000000e+00  8.999807e-01 8.867506e-02 0.000000e+00  -2.612068e-01 -3.001956e-01 0.000000e+00  1.723959e+00 -2.321525e-01 0.000000e+00  2.761125e-01 1.155120e-02 0.000000e+00  6.931654e-02 -1.160024e-01 0.000000e+00  1.132252e+00 1.337664e-02 0.000000e+00  1.357705e+00 -1.484811e-01 0.000000e+00  1.081025e+00 1.085747e-01 0.000000e+00  1.515681e+00 -2.449407e-01 0.000000e+00  1.062112e+00 -6.008433e-02 0.000000e+00  7.631471e-01 1.101911e-01 0.000000e+00  1.334109e+00 -1.125506e-01 0.000000e+00  1.270073e+00 7.678048e-02 0.000000e+00  1.083956e+00 5.973338e-03 0.000000e+00  1.157604e+00 -1.229378e-01 0.000000e+00  1.371289e+00 -1.051460e-01 0.000000e+00  1.645328e+00 1.598516e-01 0.000000e+00  1.069879e+00 9.706500e-02 0.000000e+00  1.082204e+00 -1.215012e-01 0.000000e+00  9.055667e-01 -7.998850e-03 0.000000e+00  7.985839e-01 2.819434e-02 0.000000e+00  1.016290e+00 8.482503e-02 0.000000e+00  8.795148e-01 -6.249450e-02 0.000000e+00  1.077523e+00 -2.401603e-02 0.000000e+00  1.186242e+00 -1.911446e-02 0.000000e+00  9.302950e-01 -9.076898e-02 0.000000e+00  1.070874e+00 9.783371e-02 0.000000e+00  8.729542e-01 -2.915129e-02 0.000000e+00  1.116690e+00 -4.196352e-02 0.000000e+00  -2.304660e-01 5.633224e-01 0.000000e+00  8.703493e-01 3.411344e-01 0.000000e+00  9.258607e-01 -4.136510e-02 0.000000e+00  1.715919e+00 3.248931e-02 0.000000e+00  5.963095e-01 -3.540803e-01 0.000000e+00  1.326070e+00 1.397822e-01 0.000000e+00  1.616718e+00 -2.801960e-01 0.000000e+00  1.205329e+00 -3.050055e-01 0.000000e+00  1.523836e+00 1.152596e-01 0.000000e+00  -1.215662e-01 -4.350410e-02 0.000000e+00  1.409899e+00 4.383840e-01 0.000000e+00  7.216760e-01 -2.027461e-03 0.000000e+00  1.713510e+00 -3.915331e-02 0.000000e+00  1.076217e+00 4.526314e-02 0.000000e+00  1.013962e+00 -6.279136e-02 0.000000e+00  7.122872e-01 1.545143e-02 0.000000e+00  1.139276e+00 8.115120e-02 0.000000e+00  1.002512e+00 9.705124e-03 0.000000e+00  1.818819e+00 5.508755e-01 0.000000e+00  1.410525e+00 2.776172e-01 0.000000e+00  1.615196e+00 -1.701999e-01 0.000000e+00  8.911818e-01 -3.727569e-02 0.000000e+00  8.229386e-01 -7.489034e-02 0.000000e+00  1.477488e+00 2.479993e-01 0.000000e+00  2.042490e+00 3.895414e-01 0.000000e+00  2.038750e+00 3.067081e-01 0.000000e+00  2.037141e+00 -1.984553e-01 0.000000e+00  1.798855e+00 -1.012854e+00 0.000000e+00  1.287795e+00 4.325177e-01 0.000000e+00  1.039360e+00 1.398253e-01 0.000000e+00  1.165546e+00 -2.257559e-01 0.000000e+00  1.638991e+00 7.366362e-01 0.000000e+00  6.119861e-01 1.012176e-01 0.000000e+00  8.592332e-01 3.839951e-02 0.000000e+00  1.427264e+00 8.670529e-02 0.000000e+00  1.556129e+00 1.579524e-01 0.000000e+00  1.565249e+00 1.659701e-02 0.000000e+00  5.052918e-01 1.536951e-02 0.000000e+00  5.295475e-01 6.655067e-03 0.000000e+00  0.000000e+00 0.000000e+00 0.000000e+00  9.389837e-01 -4.296684e-02 0.000000e+00  7.426564e-01 -9.401105e-02 0.000000e+00  0.000000e+00 0.000000e+00 0.000000e+00  5.555060e-01 7.099805e-02 0.000000e+00  4.909909e-01 3.137580e-02 0.000000e+00  0.000000e+00 0.000000e+00 0.000000e+00  1.027484e+00 5.559049e-02 0.000000e+00  6.562500e-01 0.000000e+00 0.000000e+00  1.805464e+00 1.131589e-01 0.000000e+00  1.241359e+00 3.822348e-02 0.000000e+00  1.397095e+00 2.080717e-02 0.000000e+00  1.158791e+00 1.244217e-01 0.000000e+00  1.274467e+00 5.682331e-02 0.000000e+00  4.889288e-01 -1.381027e-01 0.000000e+00  -2.041357e-01 -3.590773e-01 0.000000e+00  1.034286e+00 -1.857906e-01 0.000000e+00  1.929965e+00 2.950916e-01 0.000000e+00  1.352591e+00 -1.912697e-02 0.000000e+00  1.262011e+00 1.797893e-01 0.000000e+00  1.442479e+00 1.221025e-01 0.000000e+00  1.550643e+00 2.341769e-01 0.000000e+00  1.037475e+00 1.490529e-02 0.000000e+00  6.393352e-01 -8.235365e-03 0.000000e+00  1.469577e+00 -2.157742e-02 0.000000e+00  1.378911e+00 8.176485e-02 0.000000e+00  4.296990e-01 1.815756e-01 0.000000e+00  7.950620e-01 7.674291e-01 0.000000e+00  7.575447e-01 6.045272e-01 0.000000e+00  1.423175e+00 1.252834e-01 0.000000e+00  1.100748e+00 4.829353e-02 0.000000e+00  1.236209e+00 1.458573e-03 0.000000e+00  1.450005e+00 -2.295353e-01 0.000000e+00  1.571788e+00 -3.046797e-01 0.000000e+00  1.243458e+00 -1.578632e-01 0.000000e+00  1.537807e+00 -2.557178e-01 0.000000e+00  1.634379e+00 -1.908913e-01 0.000000e+00  1.361542e+00 -1.447078e-01 0.000000e+00  9.214080e-01 -4.029834e-01 0.000000e+00  1.552755e+00 -6.111102e-03 0.000000e+00  1.751343e+00 -3.880361e-02 0.000000e+00  1.237396e+00 -3.151099e-02 0.000000e+00  8.550867e-01 7.712506e-01 0.000000e+00  6.344011e-01 5.277773e-01 0.000000e+00  -7.071068e-01 -7.071068e-01 0.000000e+00  -7.026927e-06 1.374878e-01 0.000000e+00  -2.140225e-02 1.136201e-01 0.000000e+00  2.588197e-01 9.659256e-01 0.000000e+00  -1.024259e-01 -9.818172e-02 0.000000e+00  9.711330e-01 -1.721858e-01 0.000000e+00  1.400253e+00 -3.416585e-01 0.000000e+00  1.447237e+00 -3.134310e-01 0.000000e+00  1.218027e+00 1.339849e-01 0.000000e+00  1.466509e+00 1.667135e-01 0.000000e+00  1.527753e+00 3.252797e-01 0.000000e+00  9.569249e-01 6.953715e-02 0.000000e+00  1.047140e+00 1.017391e-01 0.000000e+00  3.629149e-01 -8.117104e-03 0.000000e+00  3.267483e-01 -1.851849e-02 0.000000e+00  0.000000e+00 0.000000e+00 0.000000e+00  8.904138e-01 -2.582533e-02 0.000000e+00  8.941452e-01 -3.118728e-02 0.000000e+00  1.025767e+00 -2.325594e-02 0.000000e+00  8.584413e-01 -8.046424e-02 0.000000e+00  1.112532e+00 3.007413e-02 0.000000e+00  3.394557e-01 -1.592290e-02 0.000000e+00  4.155753e-01 -1.253646e-02 0.000000e+00  3.998766e-01 2.387099e-03 0.000000e+00  0.000000e+00 0.000000e+00 0.000000e+00  1.021889e+00 2.597747e-02 0.000000e+00  1.326773e+00 1.183174e-01 0.000000e+00  8.320270e-01 -4.193671e-02 0.000000e+00  1.142837e+00 -1.400491e-01 0.000000e+00  5.036986e-01 -2.467487e-02 0.000000e+00  3.285473e-01 8.741433e-03 0.000000e+00  0.000000e+00 0.000000e+00 0.000000e+00  1.441680e+00 1.573039e-01 0.000000e+00  1.578196e+00 3.464965e-01 0.000000e+00  9.385117e-01 5.822243e-02 0.000000e+00  1.639588e+00 2.128689e-01 0.000000e+00  3.594693e-01 1.977985e-02 0.000000e+00  5.532070e-01 -2.324545e-02 0.000000e+00  0.000000e+00 0.000000e+00 0.000000e+00  1.290815e+00 -2.136601e-01 0.000000e+00  1.529522e+00 -3.157359e-01 0.000000e+00  1.021402e+00 -7.950624e-02 0.000000e+00  1.432230e+00 -1.574396e-01 0.000000e+00  5.830929e-01 -8.512298e-03 0.000000e+00  1.364898e+00 -6.199742e-02 0.000000e+00  1.627972e+00 -1.141812e-01 0.000000e+00  7.941950e-01 -2.890065e-02 0.000000e+00  7.359923e-01 -3.444253e-02 0.000000e+00  0.000000e+00 0.000000e+00 0.000000e+00  1.629756e+00 3.609306e-03 0.000000e+00  1.459345e+00 6.514549e-02 0.000000e+00  6.391196e-01 1.558714e-02 0.000000e+00  6.442986e-01 -2.699928e-03 0.000000e+00  0.000000e+00 0.000000e+00 0.000000e+00  1.277865e+00 -6.168428e-02 0.000000e+00  1.507371e+00 1.631541e-01 0.000000e+00  6.764751e-01 2.464395e-02 0.000000e+00  7.195781e-01 3.389314e-02 0.000000e+00  0.000000e+00 0.000000e+00 0.000000e+00  1.136444e+00 7.368488e-02 0.000000e+00  1.419829e+00 2.780442e-01 0.000000e+00  1.352413e+00 1.859473e-01 0.000000e+00  1.540374e+00 2.598621e-01 0.000000e+00  9.644459e-01 -7.260540e-02 0.000000e+00  9.347245e-01 7.897433e-02 0.000000e+00  0.000000e+00 0.000000e+00 0.000000e+00  1.536930e+00 -5.030252e-01 0.000000e+00  1.451181e+00 -5.355006e-01 0.000000e+00  6.980003e-01 -3.037025e-02 0.000000e+00  6.740129e-01 -5.184164e-03 0.000000e+00  0.000000e+00 0.000000e+00 0.000000e+00  1.011385e+00 5.024261e-02 0.000000e+00  1.388688e+00 -4.439317e-02 0.000000e+00  1.465068e+00 -2.553563e-01 0.000000e+00  1.656481e+00 -2.338698e-01 0.000000e+00  1.032835e+00 1.143913e-01 0.000000e+00  1.186062e+00 7.492609e-02 0.000000e+00  0.000000e+00 0.000000e+00 0.000000e+00  1.050736e+00 -2.612333e-02 0.000000e+00  1.437049e+00 -2.076628e-01 0.000000e+00  1.431264e+00 1.748464e-01 0.000000e+00  1.675377e+00 1.898158e-01 0.000000e+00  7.908726e-01 -2.689072e-02 0.000000e+00  7.258195e-01 -4.164330e-02 0.000000e+00  0.000000e+00 0.000000e+00 0.000000e+00  1.183220e+00 -1.464242e-01 0.000000e+00  1.598116e+00 -3.096887e-01 0.000000e+00  1.694468e+00 -1.835457e-01 0.000000e+00  1.263686e+00 -1.674400e-02 0.000000e+00  1.203449e+00 -3.195418e-02 0.000000e+00  0.000000e+00 0.000000e+00 0.000000e+00  9.001880e-01 1.369977e-01 0.000000e+00  1.555411e+00 4.402367e-01 0.000000e+00  1.657403e+00 4.154085e-01 0.000000e+00  7.904336e-01 -1.922621e-02 0.000000e+00  7.893251e-01 9.617256e-03 0.000000e+00  0.000000e+00 0.000000e+00 0.000000e+00  1.609764e+00 -4.597670e-02 0.000000e+00  3.912052e-01 7.193910e-03 0.000000e+00  0.000000e+00 0.000000e+00 0.000000e+00  1.650016e+00 1.682974e-01 0.000000e+00  1.184536e+00 6.234288e-02 0.000000e+00  4.377512e-01 -8.885004e-03 0.000000e+00  5.881002e-01 8.397610e-03 0.000000e+00  0.000000e+00 0.000000e+00 0.000000e+00  1.488333e+00 -1.950084e-02 0.000000e+00  1.077625e+00 4.788259e-02 0.000000e+00  1.448962e+00 1.300389e-01 0.000000e+00  5.738626e-01 1.988616e-02 0.000000e+00  5.454416e-01 1.658525e-02 0.000000e+00  0.000000e+00 0.000000e+00 0.000000e+00  1.350579e+00 1.994739e-01 0.000000e+00  9.380324e-01 5.966011e-02 0.000000e+00  1.256740e+00 9.625625e-02 0.000000e+00  5.313258e-01 6.159821e-04 0.000000e+00  5.476298e-01 -1.689235e-02 0.000000e+00  0.000000e+00 0.000000e+00 0.000000e+00  1.145433e+00 -5.493517e-02 0.000000e+00  9.672037e-01 -6.961543e-02 0.000000e+00  6.438095e-01 -3.252316e-02 0.000000e+00  8.003908e-01 -3.573980e-02 0.000000e+00  7.761605e-01 -1.704394e-02 0.000000e+00  0.000000e+00 0.000000e+00 0.000000e+00  1.582478e+00 2.560825e-01 0.000000e+00  1.579661e+00 2.835207e-01 0.000000e+00  1.651854e+00 6.670227e-02 0.000000e+00  1.576364e+00 -3.980045e-02 0.000000e+00  6.206112e-01 -2.468995e-02 0.000000e+00  0.000000e+00 0.000000e+00 0.000000e+00  1.111764e+00 -9.863539e-02 0.000000e+00  1.504016e+00 -1.677183e-01 0.000000e+00  1.354798e+00 -2.050424e-03 0.000000e+00  1.407561e+00 -3.215827e-02 0.000000e+00  0.000000e+00 0.000000e+00 0.000000e+00  1.507732e+00 -2.394060e-01 0.000000e+00  1.316124e+00 -2.262645e-01 0.000000e+00  0.000000e+00 0.000000e+00 0.000000e+00  1.865803e+00 -3.908148e-01 0.000000e+00  1.409883e+00 3.552868e-02 0.000000e+00  7.009838e-01 6.888552e-02 0.000000e+00  1.367952e+00 -7.446849e-02 0.000000e+00  0.000000e+00 0.000000e+00 0.000000e+00  1.879712e+00 1.883855e-02 0.000000e+00  8.607870e-01 -2.327246e-02 0.000000e+00  -4.320667e-01 7.063085e-02 0.000000e+00  8.799418e-01 -1.228583e-01 0.000000e+00  1.284279e+00 -3.752806e-02 0.000000e+00  1.194637e+00 1.699195e-01 0.000000e+00  1.084414e+00 9.719651e-02 0.000000e+00  0.000000e+00 0.000000e+00 0.000000e+00  1.038995e+00 9.419271e-02 0.000000e+00  1.159334e+00 1.587174e-02 0.000000e+00  0.000000e+00 0.000000e+00 0.000000e+00  -1.431534e-01 4.219948e-02 0.000000e+00  -1.719943e-01 2.667159e-01 0.000000e+00  -1.752523e-01 1.321140e-01 0.000000e+00  -2.161688e-01 -1.626875e-01 0.000000e+00  1.067104e+00 1.139118e-03 0.000000e+00  1.020455e+00 1.081536e-02 0.000000e+00  8.307451e-01 -6.590047e-03 0.000000e+00  1.533922e+00 1.610126e-01 0.000000e+00  1.357089e+00 -9.297083e-02 0.000000e+00  1.786571e+00 -4.710036e-02 0.000000e+00  1.629898e+00 1.362108e-01 0.000000e+00  6.335071e-01 9.262174e-03 0.000000e+00  6.624715e-01 2.449978e-02 0.000000e+00  0.000000e+00 0.000000e+00 0.000000e+00  6.757428e-01 -2.334997e-02 0.000000e+00  6.631779e-01 -1.925092e-02 0.000000e+00  0.000000e+00 0.000000e+00 0.000000e+00  1.222697e+00 -4.931119e-02 0.000000e+00  4.025936e-01 1.010303e-02 0.000000e+00  3.967776e-01 -6.454698e-03 0.000000e+00  0.000000e+00 0.000000e+00 0.000000e+00  8.285850e-01 -6.701235e-04 0.000000e+00  5.752731e-01 -2.138592e-02 0.000000e+00  8.064709e-01 3.510583e-02 0.000000e+00  1.227919e+00 -5.807597e-02 0.000000e+00  1.129889e+00 -1.814729e-02 0.000000e+00  1.265890e+00 2.468592e-01 0.000000e+00  5.604298e-01 1.083609e-02 0.000000e+00  5.703987e-01 7.266653e-04 0.000000e+00  0.000000e+00 0.000000e+00 0.000000e+00  1.400918e+00 5.223223e-02 0.000000e+00  1.203606e+00 -3.985894e-02 0.000000e+00  1.723541e+00 -2.730439e-01 0.000000e+00  1.661752e+00 -2.222790e-01 0.000000e+00  1.076888e+00 3.969948e-02 0.000000e+00  1.355082e+00 1.332448e-01 0.000000e+00  1.027749e+00 5.959335e-02 0.000000e+00  1.143763e+00 8.897232e-02 0.000000e+00  -1.896982e-02 -1.214646e-01 0.000000e+00  -8.063764e-02 2.343106e-01 0.000000e+00  -2.588197e-01 9.659256e-01 0.000000e+00  -8.441767e-02 -2.429045e-01 0.000000e+00  1.550233e+00 2.322581e-01 0.000000e+00  1.529388e+00 1.806556e-01 0.000000e+00  3.007964e-01 -4.294153e-03 0.000000e+00  2.956898e-01 -7.004481e-04 0.000000e+00  0.000000e+00 0.000000e+00 0.000000e+00  1.459508e+00 -2.058483e-01 0.000000e+00  9.922538e-01 -8.216461e-02 0.000000e+00  1.343049e+00 -2.315153e-01 0.000000e+00  4.552625e-01 -1.933314e-02 0.000000e+00  0.000000e+00 0.000000e+00 0.000000e+00  5.298944e-01 7.329151e-03 0.000000e+00  1.312460e+00 2.028921e-01 0.000000e+00  9.988904e-01 2.294466e-02 0.000000e+00  1.246503e+00 1.044037e-01 0.000000e+00  1.172590e+00 2.131467e-01 0.000000e+00  1.778698e+00 3.351973e-01 0.000000e+00  1.525303e+00 2.716692e-01 0.000000e+00  1.019183e+00 1.180876e-01 0.000000e+00  1.544066e+00 -1.458024e-01 0.000000e+00  1.629989e+00 7.978545e-02 0.000000e+00  1.634219e+00 -3.773166e-01 0.000000e+00  1.589180e+00 4.031511e-01 0.000000e+00  4.469184e-01 1.444397e-01 0.000000e+00  -7.612619e-02 1.413478e-01 0.000000e+00  -7.071068e-01 7.071068e-01 0.000000e+00  1.235567e+00 2.659547e-01 0.000000e+00  1.486648e+00 5.333162e-01 0.000000e+00  5.303643e-01 -2.106058e-02 0.000000e+00  5.229495e-01 -3.135233e-03 0.000000e+00  0.000000e+00 0.000000e+00 0.000000e+00  9.731646e-01 1.548890e-02 0.000000e+00  7.300837e-01 2.369813e-02 0.000000e+00  1.118582e+00 -1.045110e-01 0.000000e+00  1.301685e+00 -1.627290e-01 0.000000e+00  1.426956e+00 -1.406838e-02 0.000000e+00  1.414165e+00 -2.075356e-01 0.000000e+00  4.120477e-01 -2.370042e-02 0.000000e+00  3.695625e-01 -2.373638e-02 0.000000e+00  0.000000e+00 0.000000e+00 0.000000e+00  7.614205e-01 -2.887441e-02 0.000000e+00  1.118127e+00 -4.675115e-02 0.000000e+00  1.339376e+00 -9.201898e-02 0.000000e+00  9.714560e-01 -6.661971e-02 0.000000e+00  1.538894e+00 2.043576e-01 0.000000e+00  9.916569e-01 1.271749e-01 0.000000e+00  7.149253e-01 1.332551e-01 0.000000e+00  0.000000e+00 0.000000e+00 0.000000e+00  1.478125e+00 3.733511e-01 0.000000e+00  8.006347e-01 1.760747e-01 0.000000e+00  1.763587e+00 2.891428e-01 0.000000e+00  1.846854e+00 2.392430e-01 0.000000e+00  2.015651e+00 3.301121e-01 0.000000e+00  1.911625e+00 2.372670e-01 0.000000e+00  2.298790e+00 9.860583e-02 0.000000e+00  2.604382e+00 -9.059491e-02 0.000000e+00  1.501465e+00 5.339785e-01 0.000000e+00  4.138583e-01 1.731446e-02 0.000000e+00  0.000000e+00 0.000000e+00 0.000000e+00  5.615672e-01 2.119580e-02 0.000000e+00  1.836875e+00 -9.320817e-03 0.000000e+00  5.680686e-01 -9.176966e-03 0.000000e+00  0.000000e+00 0.000000e+00 0.000000e+00  1.199681e+00 -9.025584e-03 0.000000e+00  1.651700e+00 -3.323853e-01 0.000000e+00  1.463472e+00 -1.755591e-03 0.000000e+00  1.406250e+00 0.000000e+00 0.000000e+00  5.272264e-01 1.310623e-01 0.000000e+00  5.839247e-01 1.787293e-01 0.000000e+00  7.071068e-01 7.071068e-01 0.000000e+00  1.028235e+00 2.193022e-01 0.000000e+00  9.545556e-01 -6.689087e-01 0.000000e+00  8.671368e-01 -4.543156e-01 0.000000e+00  2.588197e-01 -9.659256e-01 0.000000e+00  1.292824e+00 -8.574095e-01 0.000000e+00  1.545127e+00 -1.433455e+00 0.000000e+00  1.470430e+00 -1.321037e-01 0.000000e+00  1.174409e+00 5.164711e-01 0.000000e+00  1.213105e+00 2.557618e-01 0.000000e+00  4.109570e-01 -1.468314e-01 0.000000e+00  3.321626e-02 -2.443853e-01 0.000000e+00  1.614674e+00 2.745053e-01 0.000000e+00  7.817118e-01 -1.419875e-01 0.000000e+00  6.700534e-01 -6.699808e-02 0.000000e+00  0.000000e+00 0.000000e+00 0.000000e+00  1.111688e+00 -1.016174e-01 0.000000e+00  6.562500e-01 0.000000e+00 0.000000e+00  8.982922e-01 6.524647e-01 0.000000e+00  1.508649e+00 7.772574e-01 0.000000e+00  1.669134e+00 5.914835e-01 0.000000e+00  1.057757e+00 2.042300e-01 0.000000e+00  -1.173213e-01 -2.373859e-01 0.000000e+00  1.177122e+00 -2.570674e-01 0.000000e+00  1.396344e+00 -1.220486e-01 0.000000e+00  1.406250e+00 0.000000e+00 0.000000e+00  1.414102e+00 -5.359190e-01 0.000000e+00  1.575676e+00 -4.264050e-01 0.000000e+00  1.338552e+00 -3.788043e-01 0.000000e+00  2.053532e+00 -1.325109e+00 0.000000e+00  7.071068e-01 -7.071068e-01 0.000000e+00  1.990744e+00 4.019346e-01 0.000000e+00  5.372279e-01 6.533370e-02 0.000000e+00