<?xml version="1.0"?>
<VTKFile type="UnstructuredGrid"  version="0.1"  >
<UnstructuredGrid>
<Piece  NumberOfPoints="525" NumberOfCells="924">
<Points>
<DataArray  type="Float32"  NumberOfComponents="3"  format="ascii">0 0 0  2.2 0 0  2.2 0.41 0  0 0.41 0  0.15 0.2 0  0.25 0.2 0  0.2 0.15 0  0.2 0.25 0  0.104762 0 0  0.209524 0 0  0.314286 0 0  0.419048 0 0  0.52381 0 0  0.628571 0 0  0.733333 0 0  0.838095 0 0  0.942857 0 0  1.04762 0 0  1.15238 0 0  1.25714 0 0  1.3619 0 0  1.46667 0 0  1.57143 0 0  1.67619 0 0  1.78095 0 0  1.88571 0 0  1.99048 0 0  2.09524 0 0  2.2 0.1025 0  2.2 0.205 0  2.2 0.3075 0  2.1 0.41 0  2 0.41 0  1.9 0.41 0  1.8 0.41 0  1.7 0.41 0  1.6 0.41 0  1.5 0.41 0  1.4 0.41 0  1.3 0.41 0  1.2 0.41 0  1.1 0.41 0  1 0.41 0  0.9 0.41 0  0.8 0.41 0  0.7 0.41 0  0.6 0.41 0  0.5 0.41 0  0.4 0.41 0  0.3 0.41 0  0.2 0.41 0  0.1 0.41 0  0 0.3075 0  0 0.205 0  0 0.1025 0  0.156699 0.225 0  0.175 0.243301 0  0.225 0.243301 0  0.243301 0.225 0  0.243301 0.175 0  0.225 0.156699 0  0.175 0.156699 0  0.156699 0.175 0  0.352033 0.262216 0  1.04579 0.252253 0  1.24065 0.243419 0  0.985775 0.171509 0  1.30324 0.187395 0  0.890988 0.190768 0  1.39085 0.202767 0  0.801464 0.204685 0  1.49904 0.204666 0  0.704267 0.202289 0  1.60238 0.204951 0  0.487789 0.19191 0  1.72935 0.219637 0  1.83335 0.187427 0  2.03359 0.193642 0  0.314663 0.307348 0  0.249039 0.333583 0  2.12147 0.253405 0  2.06373 0.0836837 0  0.0734726 0.267055 0  0.143989 0.0677174 0  0.0613613 0.33781 0  0.299628 0.236829 0  0.527114 0.295386 0  0.262384 0.26549 0  0.275777 0.18341 0  1.74578 0.330928 0  1.84001 0.302448 0  1.64998 0.313838 0  0.648421 0.302367 0  1.54544 0.308508 0  0.755686 0.306156 0  1.42668 0.314809 0  0.870524 0.298596 0  1.22553 0.112785 0  1.05603 0.147372 0  0.969346 0.329867 0  1.32527 0.276284 0  2.02914 0.29511 0  1.88168 0.119486 0  1.79545 0.104842 0  1.35688 0.0892539 0  1.69041 0.105324 0  0.914199 0.0955566 0  1.58234 0.102923 0  0.61843 0.10815 0  1.47999 0.101161 0  0.725217 0.104273 0  0.821727 0.102306 0  1.96725 0.105778 0  0.418624 0.241547 0  0.135226 0.239087 0  1.14921 0.314841 0  0.404508 0.333259 0  0.590155 0.206269 0  2.12554 0.150731 0  1.93166 0.22436 0  0.104689 0.190046 0  0.267856 0.0744753 0  0.269368 0.221581 0  0.434446 0.114927 0  1.0089 0.0793381 0  0.953023 0.246698 0  1.25853 0.33355 0  1.05268 0.340828 0  2.1369 0.067383 0  0.522398 0.112537 0  1.3421 0.348929 0  0.215186 0.289473 0  0.203197 0.335348 0  1.13984 0.190728 0  1.93813 0.330504 0  1.10505 0.0883705 0  0.341988 0.0824728 0  0.253113 0.138035 0  0.291932 0.131907 0  0.203713 0.102439 0  0.150375 0.134668 0  0.151494 0.309119 0  0.354384 0.17896 0  0.0685367 0.100776 0  0.424128 0.180088 0  0.474925 0.0568661 0  2.10843 0.347669 0  2.16073 0.280452 0  2.16073 0.229202 0  2.2 0.25625 0  2.07949 0.0418418 0  2.02711 0.0418418 0  2.04286 0 0  0.176756 0.0338587 0  0.124375 0.0338587 0  0.157143 0 0  0.0806807 0.373905 0  0.0306807 0.373905 0  0.05 0.41 0  0.0306807 0.322655 0  0 0.35875 0  0.281851 0.320466 0  0.27452 0.371791 0  0.307331 0.358674 0  0.067417 0.302432 0  0.0367363 0.287277 0  0.307146 0.272089 0  0.325831 0.249523 0  0.333348 0.284782 0  0.255711 0.299536 0  0.288524 0.286419 0  2.07531 0.274257 0  2.03137 0.244376 0  2.07753 0.223523 0  2.01549 0.0947309 0  1.97886 0.052889 0  2.00042 0.14971 0  2.04866 0.138663 0  0.472869 0.268466 0  0.453206 0.216728 0  0.507451 0.243648 0  2.16277 0.177866 0  2.16277 0.126615 0  2.2 0.15375 0  1.90667 0.171923 0  1.88251 0.205894 0  1.85752 0.153456 0  1.88583 0.263404 0  1.83668 0.244938 0  0.604293 0.15721 0  0.647211 0.204279 0  0.661349 0.15522 0  0.359586 0.320304 0  0.37827 0.297737 0  0.155113 0.241194 0  0.145962 0.232044 0  0.164645 0.235355 0  0.259539 0.179205 0  0.262888 0.191705 0  0.248296 0.187059 0  0.281006 0.251159 0  1.0209 0.15944 0  1.05091 0.199813 0  1.01578 0.211881 0  1.26438 0.15009 0  1.23309 0.178102 0  1.27195 0.215407 0  1.29121 0.101019 0  1.33006 0.138324 0  0.928528 0.0477783 0  0.876147 0.0477783 0  0.890476 0 0  0.902594 0.143162 0  0.949987 0.133533 0  0.938381 0.181138 0  0.867963 0.0989313 0  0.856357 0.146537 0  0.829911 0.051153 0  1.41178 0.0446269 0  1.35939 0.0446269 0  1.41429 0 0  1.37386 0.14601 0  1.34705 0.195081 0  1.41844 0.0952074 0  1.43542 0.151964 0  1.47333 0.0505805 0  0.77753 0.051153 0  0.785714 0 0  0.811595 0.153496 0  0.846226 0.197726 0  0.773472 0.10329 0  0.76334 0.154479 0  0.729275 0.0521365 0  1.52571 0.0505805 0  1.51905 0 0  1.48951 0.152913 0  1.44494 0.203716 0  1.53117 0.102042 0  1.54069 0.153795 0  1.57689 0.0514615 0  1.9804 0.259735 0  1.98262 0.209001 0  1.82001 0.356224 0  1.87 0.356224 0  1.85 0.41 0  1.78468 0.261043 0  1.78135 0.203532 0  1.72289 0.370464 0  1.77289 0.370464 0  1.75 0.41 0  1.7929 0.316688 0  1.73757 0.275282 0  1.62499 0.361919 0  1.67499 0.361919 0  1.65 0.41 0  1.69788 0.322383 0  1.68966 0.266738 0  1.62618 0.259394 0  1.66586 0.212294 0  0.624211 0.356183 0  0.674211 0.356183 0  0.65 0.41 0  0.619288 0.254318 0  0.676344 0.252328 0  1.52272 0.359254 0  1.57272 0.359254 0  1.55 0.41 0  1.59771 0.311173 0  1.57391 0.256729 0  1.52224 0.256587 0  1.55071 0.204809 0  0.727843 0.358078 0  0.777843 0.358078 0  0.75 0.41 0  0.702053 0.304261 0  0.729977 0.254223 0  0.778575 0.25542 0  0.752865 0.203487 0  1.41334 0.362405 0  1.46334 0.362405 0  1.45 0.41 0  1.48606 0.311659 0  1.46286 0.259738 0  1.40876 0.258788 0  0.835262 0.354298 0  0.885262 0.354298 0  0.85 0.41 0  0.813105 0.302376 0  0.835994 0.25164 0  0.880756 0.244682 0  0.934673 0.369934 0  0.984673 0.369934 0  0.95 0.41 0  0.919935 0.314231 0  0.676894 0.0521365 0  0.680952 0 0  0.714742 0.153281 0  0.671824 0.106212 0  0.623501 0.054075 0  1.62927 0.0514615 0  1.62381 0 0  1.59236 0.153937 0  1.63638 0.104124 0  1.6464 0.155137 0  1.6833 0.052662 0  1.73568 0.052662 0  1.72857 0 0  1.70988 0.16248 0  1.74293 0.105083 0  1.7624 0.16224 0  1.7882 0.052421 0  1.84058 0.052421 0  1.83333 0 0  1.8144 0.146135 0  1.83857 0.112164 0  1.88369 0.059743 0  1.12461 0.36242 0  1.17461 0.36242 0  1.15 0.41 0  1.31425 0.231839 0  1.28296 0.259852 0  1.35806 0.239526 0  1.37597 0.295546 0  1.92648 0.052889 0  1.9381 0 0  1.92447 0.112632 0  1.94945 0.165069 0  0.352254 0.37163 0  0.402254 0.37163 0  0.35 0.41 0  0.513557 0.352693 0  0.563557 0.352693 0  0.55 0.41 0  0.587767 0.298876 0  0.558634 0.250827 0  0.538972 0.19909 0  0.452254 0.37163 0  0.45 0.41 0  0.465811 0.314323 0  0.411566 0.287403 0  0.385328 0.251881 0  0.119958 0.214566 0  0.0890808 0.22855 0  0.104349 0.253071 0  0.22452 0.371791 0  0.25 0.41 0  0.291071 0.0372376 0  0.23869 0.0372376 0  0.261905 0 0  0.265876 0.243536 0  0.256335 0.223291 0  0.252842 0.245245 0  0.284498 0.229205 0  1.03246 0.113355 0  0.997337 0.125424 0  0.961549 0.0874474 0  0.922006 0.218733 0  0.969399 0.209103 0  0.961184 0.288282 0  0.911774 0.272647 0  1.22926 0.371775 0  1.27927 0.371775 0  1.25 0.41 0  1.02634 0.375414 0  1.07634 0.375414 0  1.05 0.41 0  1.01101 0.335348 0  2.11607 0.0336915 0  2.16845 0.0336915 0  2.14762 0 0  2.16845 0.0849415 0  2.2 0.05125 0  2.10032 0.0755333 0  0.556277 0.159403 0  0.570414 0.110343 0  0.505093 0.152224 0  1.32105 0.379464 0  1.37105 0.379464 0  1.35 0.41 0  1.33369 0.312607 0  1.38439 0.331869 0  0.999406 0.249476 0  1.00757 0.29106 0  1.30031 0.34124 0  1.2919 0.304917 0  2.13122 0.109057 0  2.09464 0.117207 0  0.272572 0.202495 0  0.259684 0.21079 0  0.248296 0.212941 0  0.287702 0.21012 0  2.1235 0.202068 0  2.07956 0.172187 0  1.02826 0.039669 0  0.975878 0.039669 0  0.995238 0 0  1.04923 0.29654 0  1.10095 0.327835 0  1.0975 0.283547 0  0.57112 0.054075 0  0.576191 0 0  0.523104 0.0562685 0  1.24959 0.288485 0  1.20387 0.324195 0  1.19493 0.27913 0  0.238785 0.277481 0  0.232112 0.311528 0  0.226118 0.334465 0  0.201599 0.372674 0  1.14453 0.252784 0  1.19024 0.217074 0  1.09281 0.221491 0  0.209191 0.31241 0  0.220093 0.266387 0  0.243692 0.254395 0  0.235355 0.235355 0  0.478422 0.113732 0  0.461117 0.153419 0  1.91906 0.370252 0  1.96907 0.370252 0  1.95 0.41 0  1.98364 0.312807 0  2.01457 0.352555 0  1.88907 0.316476 0  1.9349 0.277432 0  1.18268 0.151757 0  1.09794 0.16905 0  1.12872 0.0441853 0  1.07634 0.0441853 0  1.1 0 0  1.05697 0.0838543 0  1.08054 0.117871 0  1.12244 0.139549 0  1.16529 0.100578 0  0.304922 0.078474 0  0.328137 0.0412364 0  0.380518 0.0412364 0  0.366667 0 0  0.388217 0.0986999 0  0.426747 0.0574635 0  0.31696 0.10719 0  0.279894 0.103191 0  0.272523 0.134971 0  0.260485 0.106255 0  0.228413 0.120237 0  0.214357 0.129569 0  0.239057 0.147367 0  1.30701 0.0446269 0  1.30952 0 0  1.24133 0.0563925 0  0.235785 0.0884571 0  1.18895 0.0563925 0  1.20476 0 0  0.206618 0.0512195 0  0.173851 0.0850782 0  0.0367363 0.236028 0  0 0.25625 0  0.264445 0.160722 0  0.248207 0.156517 0  0.235355 0.164645 0  0.283855 0.157658 0  0.130694 0.182523 0  0.127344 0.195023 0  0.151704 0.187059 0  0.127532 0.162357 0  0.153537 0.154834 0  0.0523445 0.197523 0  0.14336 0.274103 0  0.112483 0.288087 0  0.31508 0.181185 0  0.327006 0.207895 0  0.323158 0.155434 0  0.0866493 0.050388 0  0.0342684 0.050388 0  0.052381 0 0  0.0342684 0.101638 0  0 0.05125 0  0.421376 0.210817 0  0.455958 0.185999 0  0.429287 0.147508 0  0.106428 0.323464 0  0.353208 0.220588 0  0.106263 0.0842467 0  0.0342684 0.152888 0  0 0.15375 0  0.109456 0.117722 0  0.147182 0.101193 0  0.0866129 0.145411 0  0.162687 0.145684 0  0.164645 0.164645 0  0.348186 0.130716 0  0.386504 0.210254 0  0.389256 0.179524 0  0.394415 0.146944 0  0.125747 0.359559 0  0.175747 0.359559 0  0.15 0.41 0  0.177345 0.322233 0  0.142613 0.219544 0  0.151704 0.212941 0  0.499367 0.0284331 0  0.446986 0.0284331 0  0.471429 0 0  0.498661 0.0847016 0  0.454685 0.0858966 0  0.201856 0.126219 0  0.212941 0.151704 0  0.18334 0.299296 0  0.175187 0.142334 0  0.187059 0.151704 0  0.177044 0.118554 0  2.15421 0.327585 0  2.15421 0.378834 0  2.2 0.35875 0  2.10421 0.378834 0  2.15 0.41 0  2.05422 0.378
[...]
<PointData  Vectors="u"> 
<DataArray  type="Float32"  Name="u"  NumberOfComponents="3" format="ascii">0.000000e+00 0.000000e+00 0.000000e+00  0.000000e+00 0.000000e+00 0.000000e+00  0.000000e+00 0.000000e+00 0.000000e+00  0.000000e+00 0.000000e+00 0.000000e+00  0.000000e+00 -1.000000e+00 0.000000e+00  0.000000e+00 1.000000e+00 0.000000e+00  1.000000e+00 0.000000e+00 0.000000e+00  -1.000000e+00 0.000000e+00 0.000000e+00  0.000000e+00 0.000000e+00 0.000000e+00  0.000000e+00 0.000000e+00 0.000000e+00  0.000000e+00 0.000000e+00 0.000000e+00  0.000000e+00 0.000000e+00 0.000000e+00  0.000000e+00 0.000000e+00 0.000000e+00  0.000000e+00 0.000000e+00 0.000000e+00  0.000000e+00 0.000000e+00 0.000000e+00  0.000000e+00 0.000000e+00 0.000000e+00  0.000000e+00 0.000000e+00 0.000000e+00  0.000000e+00 0.000000e+00 0.000000e+00  0.000000e+00 0.000000e+00 0.000000e+00  0.000000e+00 0.000000e+00 0.000000e+00  0.000000e+00 0.000000e+00 0.000000e+00  0.000000e+00 0.000000e+00 0.000000e+00  0.000000e+00 0.000000e+00 0.000000e+00  0.000000e+00 0.000000e+00 0.000000e+00  0.000000e+00 0.000000e+00 0.000000e+00  0.000000e+00 0.000000e+00 0.000000e+00  0.000000e+00 0.000000e+00 0.000000e+00  0.000000e+00 0.000000e+00 0.000000e+00  1.089399e+00 -8.927651e-02 0.000000e+00  1.599341e+00 -2.533149e-01 0.000000e+00  1.051465e+00 -4.820868e-02 0.000000e+00  0.000000e+00 0.000000e+00 0.000000e+00  0.000000e+00 0.000000e+00 0.000000e+00  0.000000e+00 0.000000e+00 0.000000e+00  0.000000e+00 0.000000e+00 0.000000e+00  0.000000e+00 0.000000e+00 0.000000e+00  0.000000e+00 0.000000e+00 0.000000e+00  0.000000e+00 0.000000e+00 0.000000e+00  0.000000e+00 0.000000e+00 0.000000e+00  0.000000e+00 0.000000e+00 0.000000e+00  0.000000e+00 0.000000e+00 0.000000e+00  0.000000e+00 0.000000e+00 0.000000e+00  0.000000e+00 0.000000e+00 0.000000e+00  0.000000e+00 0.000000e+00 0.000000e+00  0.000000e+00 0.000000e+00 0.000000e+00  0.000000e+00 0.000000e+00 0.000000e+00  0.000000e+00 0.000000e+00 0.000000e+00  0.000000e+00 0.000000e+00 0.000000e+00  0.000000e+00 0.000000e+00 0.000000e+00  0.000000e+00 0.000000e+00 0.000000e+00  0.000000e+00 0.000000e+00 0.000000e+00  0.000000e+00 0.000000e+00 0.000000e+00  1.125000e+00 0.000000e+00 0.000000e+00  1.500000e+00 0.000000e+00 0.000000e+00  1.125000e+00 0.000000e+00 0.000000e+00  -5.000023e-01 -8.660241e-01 0.000000e+00  -8.660241e-01 -5.000023e-01 0.000000e+00  -8.660241e-01 5.000023e-01 0.000000e+00  -5.000023e-01 8.660241e-01 0.000000e+00  5.000023e-01 8.660241e-01 0.000000e+00  8.660241e-01 5.000023e-01 0.000000e+00  8.660241e-01 -5.000023e-01 0.000000e+00  5.000023e-01 -8.660241e-01 0.000000e+00  -9.380519e-02 1.461105e-01 0.000000e+00  1.553758e+00 -2.607243e-01 0.000000e+00  1.678241e+00 1.875154e-01 0.000000e+00  1.295026e+00 -2.804882e-01 0.000000e+00  1.282531e+00 -9.278974e-02 0.000000e+00  1.112259e+00 -2.195616e-01 0.000000e+00  1.586200e+00 -3.469703e-01 0.000000e+00  1.520652e+00 2.935771e-01 0.000000e+00  1.658759e+00 -1.396262e-01 0.000000e+00  1.770681e+00 4.305221e-01 0.000000e+00  1.573473e+00 3.574946e-01 0.000000e+00  5.335076e-01 7.234838e-02 0.000000e+00  1.651501e+00 -1.329869e-01 0.000000e+00  1.573901e+00 -3.653998e-01 0.000000e+00  1.597912e+00 2.149154e-01 0.000000e+00  1.790617e+00 1.016483e-01 0.000000e+00  1.607773e+00 2.608297e-01 0.000000e+00  1.597659e+00 -1.476034e-01 0.000000e+00  7.901476e-01 -5.963023e-03 0.000000e+00  1.280152e+00 6.893579e-02 0.000000e+00  1.244534e+00 -2.352709e-01 0.000000e+00  8.963514e-01 8.313588e-02 0.000000e+00  -3.060225e-01 -1.771838e-01 0.000000e+00  1.776098e+00 -4.988741e-01 0.000000e+00  1.657736e-01 -1.146786e-02 0.000000e+00  1.416955e-01 -1.599322e-01 0.000000e+00  1.081487e+00 -8.862300e-02 0.000000e+00  1.068930e+00 -1.239969e-01 0.000000e+00  1.272207e+00 4.760374e-02 0.000000e+00  8.335915e-01 1.847961e-02 0.000000e+00  1.044186e+00 8.800592e-02 0.000000e+00  1.009320e+00 4.585106e-02 0.000000e+00  1.110583e+00 -1.206740e-01 0.000000e+00  1.743290e+00 -2.003312e-01 0.000000e+00  9.760866e-01 8.231053e-02 0.000000e+00  1.444048e+00 -8.322825e-02 0.000000e+00  1.124823e+00 -7.714768e-02 0.000000e+00  1.652180e+00 -1.801050e-01 0.000000e+00  1.284069e+00 7.142680e-02 0.000000e+00  1.275868e+00 -3.379073e-02 0.000000e+00  9.744738e-01 -1.608697e-01 0.000000e+00  7.895890e-01 -5.814459e-02 0.000000e+00  8.164664e-01 6.422650e-03 0.000000e+00  9.274559e-01 -2.390798e-02 0.000000e+00  1.028248e+00 1.234447e-01 0.000000e+00  1.254376e+00 1.327914e-01 0.000000e+00  1.046168e+00 -4.848349e-02 0.000000e+00  9.086433e-01 5.420670e-02 0.000000e+00  8.927721e-01 -1.056796e-01 0.000000e+00  1.063821e+00 1.042772e-01 0.000000e+00  5.796367e-02 5.558180e-01 0.000000e+00  8.574676e-01 3.189599e-01 0.000000e+00  1.068121e+00 8.780174e-02 0.000000e+00  1.905722e+00 -6.378494e-02 0.000000e+00  9.634046e-01 -2.747224e-01 0.000000e+00  1.254464e+00 -1.701304e-01 0.000000e+00  1.579536e+00 1.679840e-01 0.000000e+00  1.206838e+00 -3.261299e-01 0.000000e+00  1.514722e+00 1.481479e-01 0.000000e+00  -1.073278e-01 -1.202059e-01 0.000000e+00  1.343848e+00 2.873190e-01 0.000000e+00  7.092052e-01 -4.536152e-02 0.000000e+00  1.678097e+00 -4.460579e-01 0.000000e+00  1.210200e+00 -4.486859e-03 0.000000e+00  9.484927e-01 -4.752996e-02 0.000000e+00  7.458796e-01 -5.230285e-02 0.000000e+00  1.280005e+00 2.756917e-02 0.000000e+00  9.626351e-01 -5.787184e-02 0.000000e+00  1.768222e+00 5.678245e-01 0.000000e+00  1.399498e+00 3.011900e-01 0.000000e+00  1.551955e+00 2.174749e-01 0.000000e+00  8.754816e-01 4.985053e-02 0.000000e+00  8.559002e-01 -4.079465e-02 0.000000e+00  1.401711e+00 2.696442e-01 0.000000e+00  2.113289e+00 4.478209e-01 0.000000e+00  2.041191e+00 3.909784e-01 0.000000e+00  2.063546e+00 -1.798684e-01 0.000000e+00  1.819007e+00 -1.031192e+00 0.000000e+00  1.272203e+00 4.322868e-01 0.000000e+00  1.237589e+00 4.383280e-01 0.000000e+00  1.169514e+00 -2.413755e-01 0.000000e+00  1.196604e+00 5.889665e-01 0.000000e+00  6.680180e-01 5.160533e-02 0.000000e+00  8.060449e-01 -1.924032e-02 0.000000e+00  1.353013e+00 -1.479358e-01 0.000000e+00  1.620238e+00 -2.450600e-01 0.000000e+00  1.430930e+00 -1.776924e-01 0.000000e+00  4.873235e-01 -5.901497e-03 0.000000e+00  4.885219e-01 1.653506e-02 0.000000e+00  0.000000e+00 0.000000e+00 0.000000e+00  9.494679e-01 -3.983999e-02 0.000000e+00  7.541735e-01 -9.518975e-02 0.000000e+00  0.000000e+00 0.000000e+00 0.000000e+00  5.504672e-01 6.897813e-02 0.000000e+00  4.897274e-01 2.900002e-02 0.000000e+00  0.000000e+00 0.000000e+00 0.000000e+00  1.026907e+00 4.999108e-02 0.000000e+00  6.562500e-01 0.000000e+00 0.000000e+00  1.824594e+00 2.029650e-01 0.000000e+00  1.275221e+00 6.419197e-02 0.000000e+00  1.449662e+00 6.954349e-02 0.000000e+00  1.154685e+00 1.181468e-01 0.000000e+00  1.273951e+00 4.904871e-02 0.000000e+00  2.760210e-01 -1.444526e-02 0.000000e+00  -3.036344e-01 -5.175289e-02 0.000000e+00  8.128908e-01 1.408143e-02 0.000000e+00  1.844246e+00 3.252069e-01 0.000000e+00  1.101205e+00 2.142131e-02 0.000000e+00  1.498562e+00 -8.937569e-03 0.000000e+00  1.597731e+00 1.930471e-01 0.000000e+00  1.666780e+00 1.204317e-03 0.000000e+00  8.865674e-01 5.578878e-02 0.000000e+00  6.170418e-01 3.337989e-02 0.000000e+00  1.327767e+00 2.123079e-01 0.000000e+00  1.133843e+00 6.137802e-02 0.000000e+00  1.406414e+00 -2.170184e-01 0.000000e+00  1.224331e-01 3.028846e-01 0.000000e+00  1.087598e+00 -1.837011e-01 0.000000e+00  1.494939e+00 -2.643575e-01 0.000000e+00  1.152855e+00 -1.656494e-01 0.000000e+00  1.410882e+00 -2.096520e-01 0.000000e+00  1.599413e+00 5.474709e-02 0.000000e+00  1.641238e+00 -1.501511e-01 0.000000e+00  1.458421e+00 -1.943322e-01 0.000000e+00  1.282628e+00 -5.617309e-02 0.000000e+00  1.536914e+00 -3.359503e-01 0.000000e+00  1.720168e+00 9.179709e-02 0.000000e+00  1.560667e+00 1.267542e-01 0.000000e+00  1.714104e+00 2.742033e-01 0.000000e+00  1.926984e+00 6.446819e-02 0.000000e+00  1.448859e+00 2.179796e-02 0.000000e+00  8.321064e-01 7.451842e-01 0.000000e+00  6.197225e-01 5.028557e-01 0.000000e+00  -7.071068e-01 -7.071068e-01 0.000000e+00  3.089971e-02 9.381875e-02 0.000000e+00  1.608954e-02 1.023028e-02 0.000000e+00  2.588197e-01 9.659256e-01 0.000000e+00  -1.360766e-01 -5.824504e-02 0.000000e+00  1.406187e+00 -1.601981e-01 0.000000e+00  1.617944e+00 -1.833706e-01 0.000000e+00  1.575444e+00 -3.438804e-01 0.000000e+00  9.557440e-01 6.211315e-02 0.000000e+00  1.186422e+00 1.778626e-01 0.000000e+00  1.526724e+00 4.491328e-02 0.000000e+00  8.771204e-01 1.049394e-02 0.000000e+00  1.028439e+00 -6.742614e-02 0.000000e+00  3.659272e-01 -5.214927e-03 0.000000e+00  3.429950e-01 -1.287153e-02 0.000000e+00  0.000000e+00 0.000000e+00 0.000000e+00  8.682454e-01 -4.997562e-02 0.000000e+00  1.098505e+00 -1.029983e-02 0.000000e+00  1.094970e+00 -3.093937e-01 0.000000e+00  9.353917e-01 -7.797639e-02 0.000000e+00  8.152584e-01 -7.385718e-02 0.000000e+00  3.484087e-01 -2.777827e-02 0.000000e+00  4.653123e-01 -2.699744e-02 0.000000e+00  4.303266e-01 -2.695418e-02 0.000000e+00  0.000000e+00 0.000000e+00 0.000000e+00  1.150717e+00 -1.541068e-01 0.000000e+00  1.432615e+00 -2.751485e-01 0.000000e+00  9.143231e-01 -8.721945e-02 0.000000e+00  1.366710e+00 -2.025559e-01 0.000000e+00  5.572228e-01 -1.002181e-02 0.000000e+00  3.047620e-01 -1.573069e-02 0.000000e+00  0.000000e+00 0.000000e+00 0.000000e+00  9.582151e-01 6.147716e-03 0.000000e+00  1.249243e+00 2.177811e-02 0.000000e+00  8.653657e-01 -5.715729e-02 0.000000e+00  1.267000e+00 1.422239e-01 0.000000e+00  3.159656e-01 3.229153e-03 0.000000e+00  5.704051e-01 1.237429e-02 0.000000e+00  0.000000e+00 0.000000e+00 0.000000e+00  1.476867e+00 -1.133024e-01 0.000000e+00  1.666169e+00 -3.137123e-01 0.000000e+00  1.079363e+00 4.531353e-02 0.000000e+00  1.503670e+00 7.444021e-02 0.000000e+00  5.447818e-01 3.278379e-02 0.000000e+00  1.412522e+00 2.592904e-01 0.000000e+00  1.641832e+00 3.243647e-01 0.000000e+00  6.774946e-01 -3.820792e-02 0.000000e+00  6.501639e-01 -1.339824e-02 0.000000e+00  0.000000e+00 0.000000e+00 0.000000e+00  1.608034e+00 -3.429653e-01 0.000000e+00  1.603818e+00 -4.004439e-01 0.000000e+00  6.144373e-01 -2.157230e-02 0.000000e+00  5.712627e-01 -2.823756e-02 0.000000e+00  0.000000e+00 0.000000e+00 0.000000e+00  1.106114e+00 -1.408584e-01 0.000000e+00  1.640997e+00 -1.496324e-01 0.000000e+00  7.333664e-01 2.970658e-02 0.000000e+00  7.517308e-01 7.605345e-03 0.000000e+00  0.000000e+00 0.000000e+00 0.000000e+00  1.250457e+00 -3.831083e-02 0.000000e+00  1.649550e+00 9.000010e-02 0.000000e+00  1.495626e+00 3.510503e-01 0.000000e+00  1.586113e+00 2.962393e-01 0.000000e+00  1.013152e+00 1.153179e-01 0.000000e+00  1.169186e+00 1.606168e-01 0.000000e+00  0.000000e+00 0.000000e+00 0.000000e+00  1.327686e+00 -4.356323e-01 0.000000e+00  1.337737e+00 4.949493e-02 0.000000e+00  6.859990e-01 8.316846e-03 0.000000e+00  7.240883e-01 3.691656e-02 0.000000e+00  0.000000e+00 0.000000e+00 0.000000e+00  1.153653e+00 1.200857e-01 0.000000e+00  1.376376e+00 2.836916e-01 0.000000e+00  1.335132e+00 5.096387e-02 0.000000e+00  1.606332e+00 1.335789e-01 0.000000e+00  1.263852e+00 4.247038e-02 0.000000e+00  1.283262e+00 -2.385001e-02 0.000000e+00  0.000000e+00 0.000000e+00 0.000000e+00  7.845320e-01 1.245058e-01 0.000000e+00  1.450936e+00 4.539859e-01 0.000000e+00  1.534081e+00 5.597366e-01 0.000000e+00  1.671727e+00 4.622241e-01 0.000000e+00  7.036376e-01 -3.716572e-02 0.000000e+00  6.537160e-01 -2.449956e-02 0.000000e+00  0.000000e+00 0.000000e+00 0.000000e+00  1.015990e+00 -4.138943e-02 0.000000e+00  1.395470e+00 -1.949631e-01 0.000000e+00  1.498913e+00 -3.148183e-01 0.000000e+00  1.190918e+00 -5.395235e-02 0.000000e+00  1.039199e+00 -2.410717e-02 0.000000e+00  0.000000e+00 0.000000e+00 0.000000e+00  1.481538e+00 -6.826919e-02 0.000000e+00  1.677677e+00 3.062660e-01 0.000000e+00  1.688585e+00 -1.889628e-02 0.000000e+00  7.792126e-01 -1.123973e-02 0.000000e+00  7.756438e-01 -2.769675e-02 0.000000e+00  0.000000e+00 0.000000e+00 0.000000e+00  1.575635e+00 -1.439250e-01 0.000000e+00  3.401736e-01 2.719042e-02 0.000000e+00  0.000000e+00 0.000000e+00 0.000000e+00  1.557685e+00 2.524683e-01 0.000000e+00  1.078707e+00 1.424533e-01 0.000000e+00  4.177724e-01 3.002613e-02 0.000000e+00  4.999203e-01 2.833858e-02 0.000000e+00  0.000000e+00 0.000000e+00 0.000000e+00  1.444862e+00 2.536728e-01 0.000000e+00  9.131339e-01 1.166434e-01 0.000000e+00  1.308392e+00 2.539857e-01 0.000000e+00  4.843532e-01 -3.027530e-04 0.000000e+00  5.118718e-01 -3.329537e-02 0.000000e+00  0.000000e+00 0.000000e+00 0.000000e+00  1.243066e+00 -3.060802e-02 0.000000e+00  8.445131e-01 -1.236644e-01 0.000000e+00  1.267292e+00 -3.144189e-01 0.000000e+00  5.788605e-01 -4.742771e-02 0.000000e+00  6.407183e-01 -3.293759e-02 0.000000e+00  0.000000e+00 0.000000e+00 0.000000e+00  1.295950e+00 -3.166682e-01 0.000000e+00  1.140406e+00 -1.302927e-01 0.000000e+00  7.360257e-01 -9.412408e-03 0.000000e+00  8.136804e-01 3.160651e-03 0.000000e+00  8.240940e-01 2.872400e-02 0.000000e+00  0.000000e+00 0.000000e+00 0.000000e+00  1.640080e+00 -1.981951e-01 0.000000e+00  1.740518e+00 -5.309780e-02 0.000000e+00  1.654792e+00 -3.216132e-01 0.000000e+00  1.376557e+00 -1.903353e-01 0.000000e+00  6.576367e-01 2.297049e-02 0.000000e+00  0.000000e+00 0.000000e+00 0.000000e+00  1.205319e+00 7.922411e-02 0.000000e+00  1.558262e+00 2.193331e-01 0.000000e+00  1.469656e+00 -1.818438e-02 0.000000e+00  1.491099e+00 -9.717863e-02 0.000000e+00  0.000000e+00 0.000000e+00 0.000000e+00  1.295742e+00 -2.520693e-01 0.000000e+00  1.084618e+00 -7.253259e-02 0.000000e+00  0.000000e+00 0.000000e+00 0.000000e+00  1.394381e+00 -2.429337e-01 0.000000e+00  1.316103e+00 -6.675391e-01 0.000000e+00  5.505654e-01 -2.498529e-01 0.000000e+00  1.272530e+00 -1.567991e-01 0.000000e+00  0.000000e+00 0.000000e+00 0.000000e+00  1.977443e+00 -3.386592e-01 0.000000e+00  1.249839e+00 -9.583142e-03 0.000000e+00  -2.177404e-01 4.442307e-01 0.000000e+00  8.775608e-01 -1.475609e-01 0.000000e+00  1.281481e+00 -5.793174e-02 0.000000e+00  1.186344e+00 1.459944e-01 0.000000e+00  1.091636e+00 1.154877e-01 0.000000e+00  0.000000e+00 0.000000e+00 0.000000e+00  1.010462e+00 1.045226e-01 0.000000e+00  1.163550e+00 2.698917e-02 0.000000e+00  0.000000e+00 0.000000e+00 0.000000e+00  -1.479117e-01 -2.493121e-02 0.000000e+00  -1.338627e-01 1.361565e-01 0.000000e+00  -1.640171e-01 5.620009e-02 0.000000e+00  -2.324425e-01 -1.602324e-01 0.000000e+00  1.116874e+00 -5.291012e-02 0.000000e+00  1.200583e+00 -7.641118e-03 0.000000e+00  8.152236e-01 -6.303242e-03 0.000000e+00  1.461002e+00 -3.132222e-01 0.000000e+00  1.435960e+00 -3.873772e-01 0.000000e+00  1.601416e+00 -2.724575e-01 0.000000e+00  1.769756e+00 -2.980442e-01 0.000000e+00  7.039459e-01 1.279256e-02 0.000000e+00  7.144662e-01 3.003356e-03 0.000000e+00  0.000000e+00 0.000000e+00 0.000000e+00  6.605892e-01 -2.803801e-02 0.000000e+00  6.096358e-01 -2.129658e-02 0.000000e+00  0.000000e+00 0.000000e+00 0.000000e+00  1.004202e+00 -5.488742e-02 0.000000e+00  4.135919e-01 -1.522528e-02 0.000000e+00  4.474800e-01 -2.235234e-02 0.000000e+00  0.000000e+00 0.000000e+00 0.000000e+00  9.106666e-01 -7.664202e-02 0.000000e+00  6.590228e-01 -2.222277e-02 0.000000e+00  7.598191e-01 -3.772701e-02 0.000000e+00  1.556566e+00 -9.426723e-02 0.000000e+00  1.287574e+00 7.233593e-02 0.000000e+00  1.401226e+00 -1.523867e-02 0.000000e+00  5.647424e-01 -1.719757e-02 0.000000e+00  5.217689e-01 -1.789141e-02 0.000000e+00  0.000000e+00 0.000000e+00 0.000000e+00  1.371228e+00 -9.947122e-02 0.000000e+00  1.075638e+00 -1.026986e-01 0.000000e+00  1.607736e+00 -4.290482e-01 0.000000e+00  1.284062e+00 -2.267888e-01 0.000000e+00  1.122412e+00 -2.858956e-02 0.000000e+00  1.506056e+00 -5.644306e-02 0.000000e+00  9.767160e-01 -1.090092e-01 0.000000e+00  9.713738e-01 -7.032476e-02 0.000000e+00  1.663422e-02 -1.985365e-01 0.000000e+00  -4.934513e-02 9.505790e-02 0.000000e+00  -2.588197e-01 9.659256e-01 0.000000e+00  -7.190743e-02 -2.279700e-01 0.000000e+00  1.611536e+00 -2.016319e-01 0.000000e+00  1.420354e+00 -1.288134e-02 0.000000e+00  3.325272e-01 -1.890209e-02 0.000000e+00  3.020622e-01 -1.104569e-02 0.000000e+00  0.000000e+00 0.000000e+00 0.000000e+00  1.058187e+00 -9.593162e-02 0.000000e+00  9.421627e-01 4.112836e-03 0.000000e+00  1.190798e+00 7.711790e-02 0.000000e+00  4.758129e-01 2.271721e-02 0.000000e+00  0.000000e+00 0.000000e+00 0.000000e+00  5.871738e-01 9.496748e-03 0.000000e+00  1.641276e+00 9.151579e-02 0.000000e+00  1.241014e+00 6.524918e-02 0.000000e+00  1.506326e+00 2.743963e-01 0.000000e+00  1.047880e+00 1.908904e-01 0.000000e+00  1.769020e+00 3.831742e-01 0.000000e+00  1.516634e+00 3.047624e-01 0.000000e+00  1.017953e+00 1.302685e-01 0.000000e+00  1.559414e+00 3.219844e-01 0.000000e+00  1.538317e+00 3.677116e-01 0.000000e+00  1.653177e+00 3.247369e-02 0.000000e+00  1.574453e+00 4.343102e-01 0.000000e+00  3.841383e-01 1.318470e-01 0.000000e+00  -8.998861e-02 8.549701e-02 0.000000e+00  -7.071068e-01 7.071068e-01 0.000000e+00  1.264277e+00 1.053502e-01 0.000000e+00  1.350810e+00 2.359995e-01 0.000000e+00  4.980023e-01 4.894301e-03 0.000000e+00  5.388179e-01 2.647350e-02 0.000000e+00  0.000000e+00 0.000000e+00 0.000000e+00  1.061734e+00 7.643501e-02 0.000000e+00  7.777138e-01 3.765489e-02 0.000000e+00  9.065777e-01 6.277974e-03 0.000000e+00  1.175890e+00 1.443455e-01 0.000000e+00  1.165093e+00 1.527666e-01 0.000000e+00  1.562997e+00 2.322223e-02 0.000000e+00  4.226951e-01 3.611539e-03 0.000000e+00  4.094524e-01 -1.881719e-02 0.000000e+00  0.000000e+00 0.000000e+00 0.000000e+00  7.827296e-01 -6.225288e-02 0.000000e+00  1.142526e+00 -5.873267e-02 0.000000e+00  1.301675e+00 2.172511e-02 0.000000e+00  9.576324e-01 3.151095e-02 0.000000e+00  1.506255e+00 2.397502e-01 0.000000e+00  9.408213e-01 1.360045e-01 0.000000e+00  6.808346e-01 1.223680e-01 0.000000e+00  0.000000e+00 0.000000e+00 0.000000e+00  1.376114e+00 3.510396e-01 0.000000e+00  8.041358e-01 1.264857e-01 0.000000e+00  1.729221e+00 3.585460e-01 0.000000e+00  1.839756e+00 2.951567e-01 0.000000e+00  2.059741e+00 3.957920e-01 0.000000e+00  1.917439e+00 2.863748e-01 0.000000e+00  2.322036e+00 1.383029e-01 0.000000e+00  2.647458e+00 -7.088006e-02 0.000000e+00  1.595696e+00 5.842473e-01 0.000000e+00  3.963255e-01 -7.889741e-03 0.000000e+00  0.000000e+00 0.000000e+00 0.000000e+00  5.003080e-01 1.410819e-02 0.000000e+00  1.844164e+00 1.454695e-02 0.000000e+00  5.238930e-01 2.551713e-02 0.000000e+00  0.000000e+00 0.000000e+00 0.000000e+00  1.208422e+00 6.758159e-04 0.000000e+00  1.673195e+00 -3.272502e-01 0.000000e+00  1.463457e+00 -1.257349e-02 0.000000e+00  1.406250e+00 0.000000e+00 0.000000e+00  6.297963e-01 1.712129e-01 0.000000e+00  6.446080e-01 2.046583e-01 0.000000e+00  7.071068e-01 7.071068e-01 0.000000e+00  1.194810e+00 2.922608e-01 0.000000e+00  9.606562e-01 -6.910288e-01 0.000000e+00  8.682496e-01 -4.784546e-01 0.000000e+00  2.588197e-01 -9.659256e-01 0.000000e+00  1.304926e+00 -8.835413e-01 0.000000e+00  1.564318e+00 -1.459457e+00 0.000000e+00  1.471747e+00 -1.476144e-01 0.000000e+00  1.158530e+00 5.088892e-01 0.000000e+00  1.205002e+00 2.418885e-01 0.000000e+00  5.693463e-01 1.537415e-02 0.000000e+00  -3.804444e-03 4.621753e-02 0.000000e+00  1.791661e+00 4.378862e-01 0.000000e+00  7.863029e-01 -1.472632e-01 0.000000e+00  6.712448e-01 -7.101323e-02 0.000000e+00  0.000000e+00 0.000000e+00 0.000000e+00  1.112712e+00 -1.082311e-01 0.000000e+00  6.562500e-01 0.000000e+00 0.000000e+00  3.637550e-01 7.407151e-01 0.000000e+00  8.927378e-01 3.946682e-01 0.000000e+00  1.416755e+00 4.519881e-01 0.000000e+00  1.049295e+00 1.977151e-01 0.000000e+00  -1.501332e-01 2.996745e-01 0.000000e+00  1.186295e+00 -2.649987e-01 0.000000e+00  1.396102e+00 -1.301759e-01 0.000000e+00  1.406250e+00 0.000000e+00 0.000000e+00  1.425402e+00 -5.479116e-01 0.000000e+00  1.591036e+00 -4.375299e-01 0.000000e+00  1.342319e+00 -3.998596e-01 0.000000e+00  2.075595e+00 -1.344815e+00 0.000000e+00  7.071068e-01 -7.071068e-01 0.000000e+00  1.851092e+00 5.042003e-01 0.000000e+00  3.350812e-01 6.177445e-01 0.0000