<?xml version="1.0"?>
<VTKFile type="UnstructuredGrid"  version="0.1"  >
<UnstructuredGrid>
<Piece  NumberOfPoints="525" NumberOfCells="924">
<Points>
<DataArray  type="Float32"  NumberOfComponents="3"  format="ascii">0 0 0  2.2 0 0  2.2 0.41 0  0 0.41 0  0.15 0.2 0  0.25 0.2 0  0.2 0.15 0  0.2 0.25 0  0.104762 0 0  0.209524 0 0  0.314286 0 0  0.419048 0 0  0.52381 0 0  0.628571 0 0  0.733333 0 0  0.838095 0 0  0.942857 0 0  1.04762 0 0  1.15238 0 0  1.25714 0 0  1.3619 0 0  1.46667 0 0  1.57143 0 0  1.67619 0 0  1.78095 0 0  1.88571 0 0  1.99048 0 0  2.09524 0 0  2.2 0.1025 0  2.2 0.205 0  2.2 0.3075 0  2.1 0.41 0  2 0.41 0  1.9 0.41 0  1.8 0.41 0  1.7 0.41 0  1.6 0.41 0  1.5 0.41 0  1.4 0.41 0  1.3 0.41 0  1.2 0.41 0  1.1 0.41 0  1 0.41 0  0.9 0.41 0  0.8 0.41 0  0.7 0.41 0  0.6 0.41 0  0.5 0.41 0  0.4 0.41 0  0.3 0.41 0  0.2 0.41 0  0.1 0.41 0  0 0.3075 0  0 0.205 0  0 0.1025 0  0.156699 0.225 0  0.175 0.243301 0  0.225 0.243301 0  0.243301 0.225 0  0.243301 0.175 0  0.225 0.156699 0  0.175 0.156699 0  0.156699 0.175 0  0.352033 0.262216 0  1.04579 0.252253 0  1.24065 0.243419 0  0.985775 0.171509 0  1.30324 0.187395 0  0.890988 0.190768 0  1.39085 0.202767 0  0.801464 0.204685 0  1.49904 0.204666 0  0.704267 0.202289 0  1.60238 0.204951 0  0.487789 0.19191 0  1.72935 0.219637 0  1.83335 0.187427 0  2.03359 0.193642 0  0.314663 0.307348 0  0.249039 0.333583 0  2.12147 0.253405 0  2.06373 0.0836837 0  0.0734726 0.267055 0  0.143989 0.0677174 0  0.0613613 0.33781 0  0.299628 0.236829 0  0.527114 0.295386 0  0.262384 0.26549 0  0.275777 0.18341 0  1.74578 0.330928 0  1.84001 0.302448 0  1.64998 0.313838 0  0.648421 0.302367 0  1.54544 0.308508 0  0.755686 0.306156 0  1.42668 0.314809 0  0.870524 0.298596 0  1.22553 0.112785 0  1.05603 0.147372 0  0.969346 0.329867 0  1.32527 0.276284 0  2.02914 0.29511 0  1.88168 0.119486 0  1.79545 0.104842 0  1.35688 0.0892539 0  1.69041 0.105324 0  0.914199 0.0955566 0  1.58234 0.102923 0  0.61843 0.10815 0  1.47999 0.101161 0  0.725217 0.104273 0  0.821727 0.102306 0  1.96725 0.105778 0  0.418624 0.241547 0  0.135226 0.239087 0  1.14921 0.314841 0  0.404508 0.333259 0  0.590155 0.206269 0  2.12554 0.150731 0  1.93166 0.22436 0  0.104689 0.190046 0  0.267856 0.0744753 0  0.269368 0.221581 0  0.434446 0.114927 0  1.0089 0.0793381 0  0.953023 0.246698 0  1.25853 0.33355 0  1.05268 0.340828 0  2.1369 0.067383 0  0.522398 0.112537 0  1.3421 0.348929 0  0.215186 0.289473 0  0.203197 0.335348 0  1.13984 0.190728 0  1.93813 0.330504 0  1.10505 0.0883705 0  0.341988 0.0824728 0  0.253113 0.138035 0  0.291932 0.131907 0  0.203713 0.102439 0  0.150375 0.134668 0  0.151494 0.309119 0  0.354384 0.17896 0  0.0685367 0.100776 0  0.424128 0.180088 0  0.474925 0.0568661 0  2.10843 0.347669 0  2.16073 0.280452 0  2.16073 0.229202 0  2.2 0.25625 0  2.07949 0.0418418 0  2.02711 0.0418418 0  2.04286 0 0  0.176756 0.0338587 0  0.124375 0.0338587 0  0.157143 0 0  0.0806807 0.373905 0  0.0306807 0.373905 0  0.05 0.41 0  0.0306807 0.322655 0  0 0.35875 0  0.281851 0.320466 0  0.27452 0.371791 0  0.307331 0.358674 0  0.067417 0.302432 0  0.0367363 0.287277 0  0.307146 0.272089 0  0.325831 0.249523 0  0.333348 0.284782 0  0.255711 0.299536 0  0.288524 0.286419 0  2.07531 0.274257 0  2.03137 0.244376 0  2.07753 0.223523 0  2.01549 0.0947309 0  1.97886 0.052889 0  2.00042 0.14971 0  2.04866 0.138663 0  0.472869 0.268466 0  0.453206 0.216728 0  0.507451 0.243648 0  2.16277 0.177866 0  2.16277 0.126615 0  2.2 0.15375 0  1.90667 0.171923 0  1.88251 0.205894 0  1.85752 0.153456 0  1.88583 0.263404 0  1.83668 0.244938 0  0.604293 0.15721 0  0.647211 0.204279 0  0.661349 0.15522 0  0.359586 0.320304 0  0.37827 0.297737 0  0.155113 0.241194 0  0.145962 0.232044 0  0.164645 0.235355 0  0.259539 0.179205 0  0.262888 0.191705 0  0.248296 0.187059 0  0.281006 0.251159 0  1.0209 0.15944 0  1.05091 0.199813 0  1.01578 0.211881 0  1.26438 0.15009 0  1.23309 0.178102 0  1.27195 0.215407 0  1.29121 0.101019 0  1.33006 0.138324 0  0.928528 0.0477783 0  0.876147 0.0477783 0  0.890476 0 0  0.902594 0.143162 0  0.949987 0.133533 0  0.938381 0.181138 0  0.867963 0.0989313 0  0.856357 0.146537 0  0.829911 0.051153 0  1.41178 0.0446269 0  1.35939 0.0446269 0  1.41429 0 0  1.37386 0.14601 0  1.34705 0.195081 0  1.41844 0.0952074 0  1.43542 0.151964 0  1.47333 0.0505805 0  0.77753 0.051153 0  0.785714 0 0  0.811595 0.153496 0  0.846226 0.197726 0  0.773472 0.10329 0  0.76334 0.154479 0  0.729275 0.0521365 0  1.52571 0.0505805 0  1.51905 0 0  1.48951 0.152913 0  1.44494 0.203716 0  1.53117 0.102042 0  1.54069 0.153795 0  1.57689 0.0514615 0  1.9804 0.259735 0  1.98262 0.209001 0  1.82001 0.356224 0  1.87 0.356224 0  1.85 0.41 0  1.78468 0.261043 0  1.78135 0.203532 0  1.72289 0.370464 0  1.77289 0.370464 0  1.75 0.41 0  1.7929 0.316688 0  1.73757 0.275282 0  1.62499 0.361919 0  1.67499 0.361919 0  1.65 0.41 0  1.69788 0.322383 0  1.68966 0.266738 0  1.62618 0.259394 0  1.66586 0.212294 0  0.624211 0.356183 0  0.674211 0.356183 0  0.65 0.41 0  0.619288 0.254318 0  0.676344 0.252328 0  1.52272 0.359254 0  1.57272 0.359254 0  1.55 0.41 0  1.59771 0.311173 0  1.57391 0.256729 0  1.52224 0.256587 0  1.55071 0.204809 0  0.727843 0.358078 0  0.777843 0.358078 0  0.75 0.41 0  0.702053 0.304261 0  0.729977 0.254223 0  0.778575 0.25542 0  0.752865 0.203487 0  1.41334 0.362405 0  1.46334 0.362405 0  1.45 0.41 0  1.48606 0.311659 0  1.46286 0.259738 0  1.40876 0.258788 0  0.835262 0.354298 0  0.885262 0.354298 0  0.85 0.41 0  0.813105 0.302376 0  0.835994 0.25164 0  0.880756 0.244682 0  0.934673 0.369934 0  0.984673 0.369934 0  0.95 0.41 0  0.919935 0.314231 0  0.676894 0.0521365 0  0.680952 0 0  0.714742 0.153281 0  0.671824 0.106212 0  0.623501 0.054075 0  1.62927 0.0514615 0  1.62381 0 0  1.59236 0.153937 0  1.63638 0.104124 0  1.6464 0.155137 0  1.6833 0.052662 0  1.73568 0.052662 0  1.72857 0 0  1.70988 0.16248 0  1.74293 0.105083 0  1.7624 0.16224 0  1.7882 0.052421 0  1.84058 0.052421 0  1.83333 0 0  1.8144 0.146135 0  1.83857 0.112164 0  1.88369 0.059743 0  1.12461 0.36242 0  1.17461 0.36242 0  1.15 0.41 0  1.31425 0.231839 0  1.28296 0.259852 0  1.35806 0.239526 0  1.37597 0.295546 0  1.92648 0.052889 0  1.9381 0 0  1.92447 0.112632 0  1.94945 0.165069 0  0.352254 0.37163 0  0.402254 0.37163 0  0.35 0.41 0  0.513557 0.352693 0  0.563557 0.352693 0  0.55 0.41 0  0.587767 0.298876 0  0.558634 0.250827 0  0.538972 0.19909 0  0.452254 0.37163 0  0.45 0.41 0  0.465811 0.314323 0  0.411566 0.287403 0  0.385328 0.251881 0  0.119958 0.214566 0  0.0890808 0.22855 0  0.104349 0.253071 0  0.22452 0.371791 0  0.25 0.41 0  0.291071 0.0372376 0  0.23869 0.0372376 0  0.261905 0 0  0.265876 0.243536 0  0.256335 0.223291 0  0.252842 0.245245 0  0.284498 0.229205 0  1.03246 0.113355 0  0.997337 0.125424 0  0.961549 0.0874474 0  0.922006 0.218733 0  0.969399 0.209103 0  0.961184 0.288282 0  0.911774 0.272647 0  1.22926 0.371775 0  1.27927 0.371775 0  1.25 0.41 0  1.02634 0.375414 0  1.07634 0.375414 0  1.05 0.41 0  1.01101 0.335348 0  2.11607 0.0336915 0  2.16845 0.0336915 0  2.14762 0 0  2.16845 0.0849415 0  2.2 0.05125 0  2.10032 0.0755333 0  0.556277 0.159403 0  0.570414 0.110343 0  0.505093 0.152224 0  1.32105 0.379464 0  1.37105 0.379464 0  1.35 0.41 0  1.33369 0.312607 0  1.38439 0.331869 0  0.999406 0.249476 0  1.00757 0.29106 0  1.30031 0.34124 0  1.2919 0.304917 0  2.13122 0.109057 0  2.09464 0.117207 0  0.272572 0.202495 0  0.259684 0.21079 0  0.248296 0.212941 0  0.287702 0.21012 0  2.1235 0.202068 0  2.07956 0.172187 0  1.02826 0.039669 0  0.975878 0.039669 0  0.995238 0 0  1.04923 0.29654 0  1.10095 0.327835 0  1.0975 0.283547 0  0.57112 0.054075 0  0.576191 0 0  0.523104 0.0562685 0  1.24959 0.288485 0  1.20387 0.324195 0  1.19493 0.27913 0  0.238785 0.277481 0  0.232112 0.311528 0  0.226118 0.334465 0  0.201599 0.372674 0  1.14453 0.252784 0  1.19024 0.217074 0  1.09281 0.221491 0  0.209191 0.31241 0  0.220093 0.266387 0  0.243692 0.254395 0  0.235355 0.235355 0  0.478422 0.113732 0  0.461117 0.153419 0  1.91906 0.370252 0  1.96907 0.370252 0  1.95 0.41 0  1.98364 0.312807 0  2.01457 0.352555 0  1.88907 0.316476 0  1.9349 0.277432 0  1.18268 0.151757 0  1.09794 0.16905 0  1.12872 0.0441853 0  1.07634 0.0441853 0  1.1 0 0  1.05697 0.0838543 0  1.08054 0.117871 0  1.12244 0.139549 0  1.16529 0.100578 0  0.304922 0.078474 0  0.328137 0.0412364 0  0.380518 0.0412364 0  0.366667 0 0  0.388217 0.0986999 0  0.426747 0.0574635 0  0.31696 0.10719 0  0.279894 0.103191 0  0.272523 0.134971 0  0.260485 0.106255 0  0.228413 0.120237 0  0.214357 0.129569 0  0.239057 0.147367 0  1.30701 0.0446269 0  1.30952 0 0  1.24133 0.0563925 0  0.235785 0.0884571 0  1.18895 0.0563925 0  1.20476 0 0  0.206618 0.0512195 0  0.173851 0.0850782 0  0.0367363 0.236028 0  0 0.25625 0  0.264445 0.160722 0  0.248207 0.156517 0  0.235355 0.164645 0  0.283855 0.157658 0  0.130694 0.182523 0  0.127344 0.195023 0  0.151704 0.187059 0  0.127532 0.162357 0  0.153537 0.154834 0  0.0523445 0.197523 0  0.14336 0.274103 0  0.112483 0.288087 0  0.31508 0.181185 0  0.327006 0.207895 0  0.323158 0.155434 0  0.0866493 0.050388 0  0.0342684 0.050388 0  0.052381 0 0  0.0342684 0.101638 0  0 0.05125 0  0.421376 0.210817 0  0.455958 0.185999 0  0.429287 0.147508 0  0.106428 0.323464 0  0.353208 0.220588 0  0.106263 0.0842467 0  0.0342684 0.152888 0  0 0.15375 0  0.109456 0.117722 0  0.147182 0.101193 0  0.0866129 0.145411 0  0.162687 0.145684 0  0.164645 0.164645 0  0.348186 0.130716 0  0.386504 0.210254 0  0.389256 0.179524 0  0.394415 0.146944 0  0.125747 0.359559 0  0.175747 0.359559 0  0.15 0.41 0  0.177345 0.322233 0  0.142613 0.219544 0  0.151704 0.212941 0  0.499367 0.0284331 0  0.446986 0.0284331 0  0.471429 0 0  0.498661 0.0847016 0  0.454685 0.0858966 0  0.201856 0.126219 0  0.212941 0.151704 0  0.18334 0.299296 0  0.175187 0.142334 0  0.187059 0.151704 0  0.177044 0.118554 0  2.15421 0.327585 0  2.15421 0.378834 0  2.2 0.35875 0  2.10421 0.378834 0  2.15 0.41 0  2.05422 0.378
[...]
<PointData  Vectors="u"> 
<DataArray  type="Float32"  Name="u"  NumberOfComponents="3" format="ascii">0.000000e+00 0.000000e+00 0.000000e+00  0.000000e+00 0.000000e+00 0.000000e+00  0.000000e+00 0.000000e+00 0.000000e+00  0.000000e+00 0.000000e+00 0.000000e+00  0.000000e+00 -1.000000e+00 0.000000e+00  0.000000e+00 1.000000e+00 0.000000e+00  1.000000e+00 0.000000e+00 0.000000e+00  -1.000000e+00 0.000000e+00 0.000000e+00  0.000000e+00 0.000000e+00 0.000000e+00  0.000000e+00 0.000000e+00 0.000000e+00  0.000000e+00 0.000000e+00 0.000000e+00  0.000000e+00 0.000000e+00 0.000000e+00  0.000000e+00 0.000000e+00 0.000000e+00  0.000000e+00 0.000000e+00 0.000000e+00  0.000000e+00 0.000000e+00 0.000000e+00  0.000000e+00 0.000000e+00 0.000000e+00  0.000000e+00 0.000000e+00 0.000000e+00  0.000000e+00 0.000000e+00 0.000000e+00  0.000000e+00 0.000000e+00 0.000000e+00  0.000000e+00 0.000000e+00 0.000000e+00  0.000000e+00 0.000000e+00 0.000000e+00  0.000000e+00 0.000000e+00 0.000000e+00  0.000000e+00 0.000000e+00 0.000000e+00  0.000000e+00 0.000000e+00 0.000000e+00  0.000000e+00 0.000000e+00 0.000000e+00  0.000000e+00 0.000000e+00 0.000000e+00  0.000000e+00 0.000000e+00 0.000000e+00  0.000000e+00 0.000000e+00 0.000000e+00  1.128879e+00 2.796974e-02 0.000000e+00  1.575030e+00 8.158468e-02 0.000000e+00  1.022670e+00 7.336276e-02 0.000000e+00  0.000000e+00 0.000000e+00 0.000000e+00  0.000000e+00 0.000000e+00 0.000000e+00  0.000000e+00 0.000000e+00 0.000000e+00  0.000000e+00 0.000000e+00 0.000000e+00  0.000000e+00 0.000000e+00 0.000000e+00  0.000000e+00 0.000000e+00 0.000000e+00  0.000000e+00 0.000000e+00 0.000000e+00  0.000000e+00 0.000000e+00 0.000000e+00  0.000000e+00 0.000000e+00 0.000000e+00  0.000000e+00 0.000000e+00 0.000000e+00  0.000000e+00 0.000000e+00 0.000000e+00  0.000000e+00 0.000000e+00 0.000000e+00  0.000000e+00 0.000000e+00 0.000000e+00  0.000000e+00 0.000000e+00 0.000000e+00  0.000000e+00 0.000000e+00 0.000000e+00  0.000000e+00 0.000000e+00 0.000000e+00  0.000000e+00 0.000000e+00 0.000000e+00  0.000000e+00 0.000000e+00 0.000000e+00  0.000000e+00 0.000000e+00 0.000000e+00  0.000000e+00 0.000000e+00 0.000000e+00  0.000000e+00 0.000000e+00 0.000000e+00  1.125000e+00 0.000000e+00 0.000000e+00  1.500000e+00 0.000000e+00 0.000000e+00  1.125000e+00 0.000000e+00 0.000000e+00  -5.000023e-01 -8.660241e-01 0.000000e+00  -8.660241e-01 -5.000023e-01 0.000000e+00  -8.660241e-01 5.000023e-01 0.000000e+00  -5.000023e-01 8.660241e-01 0.000000e+00  5.000023e-01 8.660241e-01 0.000000e+00  8.660241e-01 5.000023e-01 0.000000e+00  8.660241e-01 -5.000023e-01 0.000000e+00  5.000023e-01 -8.660241e-01 0.000000e+00  3.982272e-01 2.381888e-01 0.000000e+00  1.564477e+00 3.152125e-01 0.000000e+00  1.694364e+00 -3.327694e-01 0.000000e+00  1.617155e+00 6.045809e-03 0.000000e+00  1.521787e+00 -3.225039e-01 0.000000e+00  1.369959e+00 -3.683594e-01 0.000000e+00  1.670311e+00 -1.351029e-01 0.000000e+00  1.230855e+00 -3.328235e-01 0.000000e+00  1.535496e+00 3.332550e-01 0.000000e+00  1.445748e+00 3.167956e-01 0.000000e+00  1.517247e+00 9.685465e-02 0.000000e+00  7.825865e-01 8.290267e-03 0.000000e+00  1.643517e+00 -4.770269e-01 0.000000e+00  1.667957e+00 1.537973e-01 0.000000e+00  1.570768e+00 -2.143283e-01 0.000000e+00  2.001451e+00 1.252255e-01 0.000000e+00  1.660368e+00 2.829891e-01 0.000000e+00  1.439957e+00 -1.376516e-01 0.000000e+00  8.757829e-01 -7.246154e-02 0.000000e+00  1.280794e+00 7.559330e-02 0.000000e+00  1.236604e+00 -2.272245e-01 0.000000e+00  8.974419e-01 8.525648e-02 0.000000e+00  -2.956974e-01 2.381053e-01 0.000000e+00  1.117733e+00 -2.030817e-01 0.000000e+00  1.371130e-01 1.301375e-01 0.000000e+00  6.691483e-02 4.706635e-03 0.000000e+00  8.809198e-01 -6.338398e-02 0.000000e+00  1.011284e+00 1.007571e-01 0.000000e+00  1.309267e+00 -1.348932e-01 0.000000e+00  9.424124e-01 3.506725e-02 0.000000e+00  1.330002e+00 7.485868e-02 0.000000e+00  1.767945e+00 -2.440405e-01 0.000000e+00  9.946152e-01 2.704769e-02 0.000000e+00  1.515794e+00 -2.395137e-01 0.000000e+00  9.534681e-01 -2.063914e-02 0.000000e+00  1.225116e+00 8.916069e-02 0.000000e+00  9.428036e-01 6.869838e-03 0.000000e+00  1.344175e+00 -2.307392e-01 0.000000e+00  1.328273e+00 -1.105478e-01 0.000000e+00  1.127551e+00 1.626703e-01 0.000000e+00  1.145596e+00 1.741780e-02 0.000000e+00  9.036162e-01 -6.362598e-02 0.000000e+00  9.436579e-01 -1.670306e-01 0.000000e+00  9.125825e-01 -7.532518e-04 0.000000e+00  8.190712e-01 4.682020e-02 0.000000e+00  1.066775e+00 1.879252e-01 0.000000e+00  1.016304e+00 1.050438e-01 0.000000e+00  8.860766e-01 -9.528716e-02 0.000000e+00  1.029766e+00 -6.827900e-02 0.000000e+00  8.785005e-01 -1.495147e-02 0.000000e+00  4.598670e-01 -3.985526e-01 0.000000e+00  8.637989e-01 3.474484e-01 0.000000e+00  1.442925e+00 4.940367e-03 0.000000e+00  1.744698e+00 -2.862546e-01 0.000000e+00  1.732904e+00 4.901426e-01 0.000000e+00  1.415498e+00 -1.470243e-01 0.000000e+00  1.655647e+00 2.560365e-01 0.000000e+00  1.203120e+00 -3.082517e-01 0.000000e+00  1.489328e+00 1.445954e-01 0.000000e+00  -1.941275e-01 1.262070e-01 0.000000e+00  1.507274e+00 1.638401e-01 0.000000e+00  7.340771e-01 -4.166092e-02 0.000000e+00  1.571326e+00 -1.955907e-01 0.000000e+00  1.121221e+00 -8.757289e-02 0.000000e+00  1.103898e+00 1.220638e-02 0.000000e+00  8.203647e-01 -2.592974e-02 0.000000e+00  1.427886e+00 2.277535e-01 0.000000e+00  8.466564e-01 -5.827122e-02 0.000000e+00  1.773604e+00 6.024067e-01 0.000000e+00  1.432519e+00 3.218646e-01 0.000000e+00  1.269762e+00 1.858830e-01 0.000000e+00  1.014119e+00 1.964925e-02 0.000000e+00  8.352289e-01 3.595944e-02 0.000000e+00  1.387593e+00 2.234878e-01 0.000000e+00  2.090754e+00 4.669971e-01 0.000000e+00  1.975881e+00 4.048116e-01 0.000000e+00  2.039324e+00 -1.772869e-01 0.000000e+00  1.798144e+00 -1.006258e+00 0.000000e+00  1.284557e+00 4.551672e-01 0.000000e+00  7.803783e-01 4.508636e-01 0.000000e+00  1.168028e+00 -2.305960e-01 0.000000e+00  8.282001e-01 1.236571e-01 0.000000e+00  7.438822e-01 7.477688e-02 0.000000e+00  7.464275e-01 -1.103517e-02 0.000000e+00  1.186397e+00 1.757431e-03 0.000000e+00  1.525308e+00 -4.633657e-02 0.000000e+00  1.343120e+00 9.613017e-02 0.000000e+00  5.343189e-01 -2.363645e-02 0.000000e+00  4.949704e-01 -2.053721e-02 0.000000e+00  0.000000e+00 0.000000e+00 0.000000e+00  9.396493e-01 -3.511963e-02 0.000000e+00  7.485235e-01 -9.249211e-02 0.000000e+00  0.000000e+00 0.000000e+00 0.000000e+00  5.544593e-01 7.295939e-02 0.000000e+00  4.893683e-01 2.930997e-02 0.000000e+00  0.000000e+00 0.000000e+00 0.000000e+00  1.025425e+00 5.215791e-02 0.000000e+00  6.562500e-01 0.000000e+00 0.000000e+00  1.918969e+00 2.422995e-01 0.000000e+00  1.329692e+00 5.811366e-02 0.000000e+00  1.515597e+00 2.421053e-02 0.000000e+00  1.156974e+00 1.191564e-01 0.000000e+00  1.273584e+00 5.059669e-02 0.000000e+00  4.527603e-01 1.712533e-01 0.000000e+00  -8.452336e-02 2.827849e-01 0.000000e+00  1.187674e+00 3.636847e-02 0.000000e+00  1.893843e+00 4.048954e-01 0.000000e+00  1.145995e+00 1.284171e-01 0.000000e+00  1.398707e+00 -1.675200e-01 0.000000e+00  1.635192e+00 -1.981479e-01 0.000000e+00  1.617938e+00 -2.779276e-01 0.000000e+00  8.517156e-01 -6.757387e-02 0.000000e+00  5.739377e-01 -3.240536e-03 0.000000e+00  1.194833e+00 -1.017314e-01 0.000000e+00  1.162597e+00 -1.893700e-01 0.000000e+00  1.429902e+00 -5.409675e-01 0.000000e+00  -2.443410e-02 -6.070292e-01 0.000000e+00  9.231582e-01 -6.309730e-01 0.000000e+00  1.562622e+00 -5.722051e-02 0.000000e+00  1.311264e+00 -2.783666e-02 0.000000e+00  1.473871e+00 5.550905e-02 0.000000e+00  1.514535e+00 2.824221e-01 0.000000e+00  1.655766e+00 3.435663e-01 0.000000e+00  1.474420e+00 2.348660e-01 0.000000e+00  1.366983e+00 2.574228e-01 0.000000e+00  1.457116e+00 2.190584e-01 0.000000e+00  1.680132e+00 3.937159e-01 0.000000e+00  1.746068e+00 5.966739e-01 0.000000e+00  1.361071e+00 2.544541e-01 0.000000e+00  2.026680e+00 -1.150629e-01 0.000000e+00  1.954923e+00 -2.638106e-01 0.000000e+00  8.405375e-01 7.706279e-01 0.000000e+00  6.275044e-01 5.313378e-01 0.000000e+00  -7.071068e-01 -7.071068e-01 0.000000e+00  5.027420e-02 1.259828e-01 0.000000e+00  -1.404997e-02 8.329267e-02 0.000000e+00  2.588197e-01 9.659256e-01 0.000000e+00  -6.810689e-02 2.290433e-01 0.000000e+00  1.480743e+00 7.179896e-02 0.000000e+00  1.574793e+00 2.838281e-01 0.000000e+00  1.656479e+00 1.871613e-01 0.000000e+00  1.114596e+00 -1.609062e-01 0.000000e+00  1.198237e+00 -2.104351e-01 0.000000e+00  1.617884e+00 -3.694613e-01 0.000000e+00  9.157145e-01 -9.188832e-02 0.000000e+00  1.243092e+00 -1.571153e-01 0.000000e+00  3.766544e-01 -1.423989e-02 0.000000e+00  3.648899e-01 -5.288347e-03 0.000000e+00  0.000000e+00 0.000000e+00 0.000000e+00  1.311010e+00 2.172825e-02 0.000000e+00  1.352834e+00 1.811451e-02 0.000000e+00  1.552415e+00 -1.772237e-01 0.000000e+00  9.974867e-01 -8.501641e-03 0.000000e+00  1.100684e+00 -3.216615e-02 0.000000e+00  3.838049e-01 -1.700003e-02 0.000000e+00  4.958416e-01 2.086723e-03 0.000000e+00  4.929520e-01 -2.084398e-02 0.000000e+00  0.000000e+00 0.000000e+00 0.000000e+00  1.387889e+00 -1.215692e-01 0.000000e+00  1.649567e+00 -2.777203e-01 0.000000e+00  1.003957e+00 6.376956e-03 0.000000e+00  1.466197e+00 3.519600e-02 0.000000e+00  5.362269e-01 2.833837e-02 0.000000e+00  3.458876e-01 -3.272911e-02 0.000000e+00  0.000000e+00 0.000000e+00 0.000000e+00  8.638802e-01 -1.083317e-01 0.000000e+00  1.207343e+00 -4.252385e-01 0.000000e+00  9.790228e-01 -1.280042e-01 0.000000e+00  8.242607e-01 -8.446845e-02 0.000000e+00  3.254699e-01 -3.697475e-02 0.000000e+00  4.834481e-01 3.389855e-02 0.000000e+00  0.000000e+00 0.000000e+00 0.000000e+00  1.416544e+00 2.217893e-01 0.000000e+00  1.605091e+00 1.072760e-01 0.000000e+00  9.204849e-01 1.266278e-01 0.000000e+00  1.297652e+00 2.669448e-01 0.000000e+00  4.648264e-01 8.639088e-03 0.000000e+00  1.598701e+00 -4.490941e-03 0.000000e+00  1.645453e+00 1.818365e-02 0.000000e+00  6.673801e-01 1.713285e-02 0.000000e+00  7.127483e-01 3.539862e-02 0.000000e+00  0.000000e+00 0.000000e+00 0.000000e+00  1.329738e+00 -8.246932e-02 0.000000e+00  1.633948e+00 -1.929135e-01 0.000000e+00  5.256231e-01 -3.111222e-02 0.000000e+00  4.992137e-01 -7.913269e-03 0.000000e+00  0.000000e+00 0.000000e+00 0.000000e+00  9.119523e-01 5.068200e-03 0.000000e+00  1.316096e+00 -2.489156e-01 0.000000e+00  7.336700e-01 -2.738281e-02 0.000000e+00  6.830396e-01 -4.638287e-02 0.000000e+00  0.000000e+00 0.000000e+00 0.000000e+00  1.082536e+00 -1.236945e-01 0.000000e+00  1.585196e+00 -3.324260e-01 0.000000e+00  1.725731e+00 -8.912408e-02 0.000000e+00  1.631082e+00 -3.697279e-01 0.000000e+00  1.330796e+00 8.864663e-02 0.000000e+00  1.383983e+00 -8.610904e-03 0.000000e+00  0.000000e+00 0.000000e+00 0.000000e+00  1.191622e+00 4.987561e-01 0.000000e+00  1.413331e+00 6.811852e-01 0.000000e+00  7.830597e-01 3.336562e-02 0.000000e+00  8.064596e-01 1.396882e-02 0.000000e+00  0.000000e+00 0.000000e+00 0.000000e+00  1.401641e+00 -3.758801e-02 0.000000e+00  1.649298e+00 2.113252e-01 0.000000e+00  1.518037e+00 3.562761e-01 0.000000e+00  1.512328e+00 3.545727e-01 0.000000e+00  1.221287e+00 -9.302703e-02 0.000000e+00  1.041705e+00 -6.923992e-02 0.000000e+00  0.000000e+00 0.000000e+00 0.000000e+00  1.417834e+00 -1.030871e-01 0.000000e+00  1.607781e+00 4.366972e-01 0.000000e+00  1.711838e+00 3.592290e-02 0.000000e+00  1.253067e+00 -3.313872e-02 0.000000e+00  6.608362e-01 -4.875694e-03 0.000000e+00  6.884588e-01 2.029444e-02 0.000000e+00  0.000000e+00 0.000000e+00 0.000000e+00  1.136623e+00 1.128241e-01 0.000000e+00  1.359112e+00 2.253458e-01 0.000000e+00  1.340413e+00 -1.062937e-02 0.000000e+00  9.452414e-01 -1.414545e-02 0.000000e+00  9.053192e-01 -1.265700e-02 0.000000e+00  0.000000e+00 0.000000e+00 0.000000e+00  1.779913e+00 -2.985234e-01 0.000000e+00  1.677864e+00 -3.693271e-01 0.000000e+00  1.606158e+00 -4.670964e-01 0.000000e+00  8.268457e-01 -2.278831e-02 0.000000e+00  7.687755e-01 -3.529261e-02 0.000000e+00  0.000000e+00 0.000000e+00 0.000000e+00  9.846602e-01 -7.540129e-02 0.000000e+00  3.010513e-01 -8.297214e-03 0.000000e+00  0.000000e+00 0.000000e+00 0.000000e+00  1.057537e+00 2.553815e-02 0.000000e+00  9.005148e-01 2.349781e-02 0.000000e+00  3.542735e-01 2.542270e-02 0.000000e+00  4.686787e-01 -2.627685e-02 0.000000e+00  0.000000e+00 0.000000e+00 0.000000e+00  1.168853e+00 9.368402e-02 0.000000e+00  8.175451e-01 -9.263985e-02 0.000000e+00  1.164032e+00 -2.060244e-01 0.000000e+00  5.506426e-01 -5.154728e-02 0.000000e+00  6.161866e-01 -4.007677e-02 0.000000e+00  0.000000e+00 0.000000e+00 0.000000e+00  1.362315e+00 -3.839180e-01 0.000000e+00  1.083941e+00 -1.119992e-01 0.000000e+00  1.502152e+00 -2.261069e-01 0.000000e+00  6.477923e-01 -6.267882e-03 0.000000e+00  6.354098e-01 2.098760e-02 0.000000e+00  0.000000e+00 0.000000e+00 0.000000e+00  1.475018e+00 5.733082e-02 0.000000e+00  1.179237e+00 1.121200e-01 0.000000e+00  6.629984e-01 3.735091e-02 0.000000e+00  8.874594e-01 2.580444e-02 0.000000e+00  8.775671e-01 7.771469e-03 0.000000e+00  0.000000e+00 0.000000e+00 0.000000e+00  1.623472e+00 -3.610413e-01 0.000000e+00  1.580091e+00 -3.330117e-01 0.000000e+00  1.550167e+00 -2.321209e-01 0.000000e+00  1.106802e+00 -7.992335e-02 0.000000e+00  5.723528e-01 2.191034e-02 0.000000e+00  0.000000e+00 0.000000e+00 0.000000e+00  9.699687e-01 8.248127e-02 0.000000e+00  1.367619e+00 1.295876e-01 0.000000e+00  1.474308e+00 -9.107841e-02 0.000000e+00  1.308713e+00 -1.395273e-01 0.000000e+00  0.000000e+00 0.000000e+00 0.000000e+00  1.176320e+00 4.866206e-03 0.000000e+00  1.177343e+00 1.302368e-01 0.000000e+00  0.000000e+00 0.000000e+00 0.000000e+00  7.951257e-01 9.203209e-02 0.000000e+00  9.377931e-01 -1.791754e-01 0.000000e+00  1.364758e+00 2.208643e-01 0.000000e+00  1.035226e+00 -1.291773e-01 0.000000e+00  0.000000e+00 0.000000e+00 0.000000e+00  1.533837e+00 -4.523262e-01 0.000000e+00  1.765241e+00 -3.586997e-01 0.000000e+00  4.956598e-01 2.813887e-02 0.000000e+00  8.737313e-01 -1.198182e-01 0.000000e+00  1.282061e+00 -4.245534e-02 0.000000e+00  1.189535e+00 1.720695e-01 0.000000e+00  1.126969e+00 1.240063e-01 0.000000e+00  0.000000e+00 0.000000e+00 0.000000e+00  9.938482e-01 1.001397e-01 0.000000e+00  1.135882e+00 2.940753e-02 0.000000e+00  0.000000e+00 0.000000e+00 0.000000e+00  -1.544989e-01 1.852190e-01 0.000000e+00  -1.994710e-01 3.143252e-01 0.000000e+00  -1.914504e-01 2.135703e-01 0.000000e+00  -2.734240e-01 1.492717e-01 0.000000e+00  1.033215e+00 -2.284350e-02 0.000000e+00  1.207028e+00 -2.118967e-02 0.000000e+00  7.900499e-01 -4.288653e-02 0.000000e+00  1.563032e+00 -3.083268e-01 0.000000e+00  1.644201e+00 -5.556806e-02 0.000000e+00  1.105790e+00 -9.681811e-02 0.000000e+00  1.484615e+00 -3.239581e-01 0.000000e+00  7.030775e-01 -2.548014e-02 0.000000e+00  6.522151e-01 -2.980866e-02 0.000000e+00  0.000000e+00 0.000000e+00 0.000000e+00  6.685414e-01 2.139067e-03 0.000000e+00  6.460006e-01 1.130606e-02 0.000000e+00  0.000000e+00 0.000000e+00 0.000000e+00  9.896106e-01 -1.745961e-02 0.000000e+00  4.677739e-01 -1.494113e-02 0.000000e+00  4.746163e-01 -8.760652e-03 0.000000e+00  0.000000e+00 0.000000e+00 0.000000e+00  9.853829e-01 -6.231791e-03 0.000000e+00  6.599951e-01 6.757837e-03 0.000000e+00  8.625035e-01 -5.229415e-02 0.000000e+00  1.804391e+00 3.414712e-01 0.000000e+00  1.280201e+00 2.442900e-01 0.000000e+00  1.819743e+00 1.759493e-01 0.000000e+00  4.802161e-01 -2.696641e-02 0.000000e+00  4.424387e-01 -1.364409e-02 0.000000e+00  0.000000e+00 0.000000e+00 0.000000e+00  1.104008e+00 -1.124728e-01 0.000000e+00  9.319542e-01 -3.944156e-02 0.000000e+00  1.556964e+00 7.386778e-02 0.000000e+00  1.080529e+00 1.164870e-01 0.000000e+00  9.897237e-01 -7.409866e-02 0.000000e+00  1.248399e+00 -1.663635e-01 0.000000e+00  1.155696e+00 -6.643344e-02 0.000000e+00  1.144088e+00 -1.310645e-01 0.000000e+00  -8.733937e-02 1.228183e-02 0.000000e+00  -1.137624e-01 2.451452e-01 0.000000e+00  -2.588197e-01 9.659256e-01 0.000000e+00  -2.524259e-01 8.248150e-02 0.000000e+00  1.595663e+00 -2.009116e-01 0.000000e+00  1.464933e+00 -2.532394e-01 0.000000e+00  3.475521e-01 -8.516843e-03 0.000000e+00  3.214888e-01 -1.557026e-02 0.000000e+00  0.000000e+00 0.000000e+00 0.000000e+00  1.140584e+00 1.947706e-01 0.000000e+00  1.233463e+00 4.323407e-02 0.000000e+00  1.504802e+00 2.741657e-01 0.000000e+00  4.216292e-01 6.536928e-02 0.000000e+00  0.000000e+00 0.000000e+00 0.000000e+00  5.850932e-01 8.093224e-02 0.000000e+00  1.537689e+00 -1.952715e-01 0.000000e+00  1.343385e+00 -5.591878e-02 0.000000e+00  1.722685e+00 -9.419313e-02 0.000000e+00  9.783788e-01 2.237599e-01 0.000000e+00  1.806089e+00 4.262342e-01 0.000000e+00  1.560970e+00 3.253063e-01 0.000000e+00  1.052167e+00 1.382884e-01 0.000000e+00  1.727783e+00 2.007784e-01 0.000000e+00  1.567850e+00 -8.201098e-02 0.000000e+00  1.583509e+00 3.738122e-01 0.000000e+00  1.592591e+00 4.685434e-01 0.000000e+00  3.269867e-01 1.323827e-01 0.000000e+00  -1.166604e-01 1.849003e-01 0.000000e+00  -7.071068e-01 7.071068e-01 0.000000e+00  1.471112e+00 1.586393e-01 0.000000e+00  1.642599e+00 1.318027e-01 0.000000e+00  5.631971e-01 1.113787e-02 0.000000e+00  5.883313e-01 7.899638e-03 0.000000e+00  0.000000e+00 0.000000e+00 0.000000e+00  1.203999e+00 -4.487796e-02 0.000000e+00  7.702531e-01 -1.884040e-02 0.000000e+00  1.066003e+00 9.710246e-02 0.000000e+00  1.447682e+00 1.527298e-01 0.000000e+00  9.062432e-01 6.585625e-03 0.000000e+00  1.197786e+00 2.082360e-01 0.000000e+00  3.642193e-01 1.933551e-02 0.000000e+00  3.914579e-01 9.986019e-03 0.000000e+00  0.000000e+00 0.000000e+00 0.000000e+00  8.005204e-01 -9.086886e-03 0.000000e+00  1.000492e+00 3.288027e-02 0.000000e+00  9.395021e-01 9.642941e-02 0.000000e+00  8.985960e-01 4.485947e-02 0.000000e+00  1.475653e+00 2.165395e-01 0.000000e+00  9.466431e-01 1.182429e-01 0.000000e+00  7.503820e-01 9.539336e-02 0.000000e+00  0.000000e+00 0.000000e+00 0.000000e+00  1.415038e+00 2.410685e-01 0.000000e+00  8.955384e-01 1.032261e-01 0.000000e+00  1.673552e+00 3.223504e-01 0.000000e+00  1.804550e+00 2.960632e-01 0.000000e+00  2.014878e+00 4.181224e-01 0.000000e+00  1.890008e+00 2.964801e-01 0.000000e+00  2.294013e+00 1.460080e-01 0.000000e+00  2.625205e+00 -6.357837e-02 0.000000e+00  1.614572e+00 6.071518e-01 0.000000e+00  4.485313e-01 -2.867933e-02 0.000000e+00  0.000000e+00 0.000000e+00 0.000000e+00  4.943667e-01 -3.155817e-02 0.000000e+00  1.825008e+00 2.657340e-02 0.000000e+00  4.691925e-01 2.361377e-04 0.000000e+00  0.000000e+00 0.000000e+00 0.000000e+00  1.199310e+00 8.610265e-03 0.000000e+00  1.652245e+00 -3.220882e-01 0.000000e+00  1.463558e+00 -9.225354e-03 0.000000e+00  1.406250e+00 0.000000e+00 0.000000e+00  6.644456e-01 2.187674e-01 0.000000e+00  6.751900e-01 2.384260e-01 0.000000e+00  7.071068e-01 7.071068e-01 0.000000e+00  1.202921e+00 3.387004e-01 0.000000e+00  9.537626e-01 -6.650977e-01 0.000000e+00  8.666666e-01 -4.523843e-01 0.000000e+00  2.588197e-01 -9.659256e-01 0.000000e+00  1.291356e+00 -8.530380e-01 0.000000e+00  1.539457e+00 -1.421507e+00 0.000000e+00  1.469843e+00 -1.417373e-01 0.000000e+00  1.167205e+00 5.292881e-01 0.000000e+00  1.208629e+00 2.696476e-01 0.000000e+00  3.774672e-01 2.404497e-01 0.000000e+00  -2.904567e-01 2.750771e-01 0.000000e+00  1.634644e+00 4.777353e-01 0.000000e+00  7.850226e-01 -1.446416e-01 0.000000e+00  6.713585e-01 -7.130033e-02 0.000000e+00  0.000000e+00 0.000000e+00 0.000000e+00  1.112394e+00 -1.082465e-01 0.000000e+00  6.562500e-01 0.000000e+00 0.000000e+00  -2.613927e-01 -1.226250e-01 0.000000e+00  7.382059e-01 -7.838059e-03 0.000000e+00  1.597030e+00 2.215188e-01 0.000000e+00  1.053232e+00 2.132776e-01 0.000000e+00  -4.736916e-01 3.328530e-01 0.000000e+00  1.181227e+00 -2.611495e-01 0.000000e+00  1.397049e+00 -1.324231e-01 0.000000e+00  1.406250e+00 0.000000e+00 0.000000e+00  1.416728e+00 -5.463712e-01 0.000000e+00  1.579053e+00 -4.166436e-01 0.000000e+00  1.339145e+00 -3.850730e-01 0.000000e+00  2.049709e+00 -1.310254e+00 0.000000e+00  7.071068e-01 -7.071068e-01 0.000000e+00  1.752137e+00 4.103620e-01 0.000000e+00  -3.833298e-01 2.433882e-01 0.000000e+00  7.87