<?xml version="1.0"?>
<VTKFile type="UnstructuredGrid"  version="0.1"  >
<UnstructuredGrid>
<Piece  NumberOfPoints="525" NumberOfCells="924">
<Points>
<DataArray  type="Float32"  NumberOfComponents="3"  format="ascii">0 0 0  2.2 0 0  2.2 0.41 0  0 0.41 0  0.15 0.2 0  0.25 0.2 0  0.2 0.15 0  0.2 0.25 0  0.104762 0 0  0.209524 0 0  0.314286 0 0  0.419048 0 0  0.52381 0 0  0.628571 0 0  0.733333 0 0  0.838095 0 0  0.942857 0 0  1.04762 0 0  1.15238 0 0  1.25714 0 0  1.3619 0 0  1.46667 0 0  1.57143 0 0  1.67619 0 0  1.78095 0 0  1.88571 0 0  1.99048 0 0  2.09524 0 0  2.2 0.1025 0  2.2 0.205 0  2.2 0.3075 0  2.1 0.41 0  2 0.41 0  1.9 0.41 0  1.8 0.41 0  1.7 0.41 0  1.6 0.41 0  1.5 0.41 0  1.4 0.41 0  1.3 0.41 0  1.2 0.41 0  1.1 0.41 0  1 0.41 0  0.9 0.41 0  0.8 0.41 0  0.7 0.41 0  0.6 0.41 0  0.5 0.41 0  0.4 0.41 0  0.3 0.41 0  0.2 0.41 0  0.1 0.41 0  0 0.3075 0  0 0.205 0  0 0.1025 0  0.156699 0.225 0  0.175 0.243301 0  0.225 0.243301 0  0.243301 0.225 0  0.243301 0.175 0  0.225 0.156699 0  0.175 0.156699 0  0.156699 0.175 0  0.352033 0.262216 0  1.04579 0.252253 0  1.24065 0.243419 0  0.985775 0.171509 0  1.30324 0.187395 0  0.890988 0.190768 0  1.39085 0.202767 0  0.801464 0.204685 0  1.49904 0.204666 0  0.704267 0.202289 0  1.60238 0.204951 0  0.487789 0.19191 0  1.72935 0.219637 0  1.83335 0.187427 0  2.03359 0.193642 0  0.314663 0.307348 0  0.249039 0.333583 0  2.12147 0.253405 0  2.06373 0.0836837 0  0.0734726 0.267055 0  0.143989 0.0677174 0  0.0613613 0.33781 0  0.299628 0.236829 0  0.527114 0.295386 0  0.262384 0.26549 0  0.275777 0.18341 0  1.74578 0.330928 0  1.84001 0.302448 0  1.64998 0.313838 0  0.648421 0.302367 0  1.54544 0.308508 0  0.755686 0.306156 0  1.42668 0.314809 0  0.870524 0.298596 0  1.22553 0.112785 0  1.05603 0.147372 0  0.969346 0.329867 0  1.32527 0.276284 0  2.02914 0.29511 0  1.88168 0.119486 0  1.79545 0.104842 0  1.35688 0.0892539 0  1.69041 0.105324 0  0.914199 0.0955566 0  1.58234 0.102923 0  0.61843 0.10815 0  1.47999 0.101161 0  0.725217 0.104273 0  0.821727 0.102306 0  1.96725 0.105778 0  0.418624 0.241547 0  0.135226 0.239087 0  1.14921 0.314841 0  0.404508 0.333259 0  0.590155 0.206269 0  2.12554 0.150731 0  1.93166 0.22436 0  0.104689 0.190046 0  0.267856 0.0744753 0  0.269368 0.221581 0  0.434446 0.114927 0  1.0089 0.0793381 0  0.953023 0.246698 0  1.25853 0.33355 0  1.05268 0.340828 0  2.1369 0.067383 0  0.522398 0.112537 0  1.3421 0.348929 0  0.215186 0.289473 0  0.203197 0.335348 0  1.13984 0.190728 0  1.93813 0.330504 0  1.10505 0.0883705 0  0.341988 0.0824728 0  0.253113 0.138035 0  0.291932 0.131907 0  0.203713 0.102439 0  0.150375 0.134668 0  0.151494 0.309119 0  0.354384 0.17896 0  0.0685367 0.100776 0  0.424128 0.180088 0  0.474925 0.0568661 0  2.10843 0.347669 0  2.16073 0.280452 0  2.16073 0.229202 0  2.2 0.25625 0  2.07949 0.0418418 0  2.02711 0.0418418 0  2.04286 0 0  0.176756 0.0338587 0  0.124375 0.0338587 0  0.157143 0 0  0.0806807 0.373905 0  0.0306807 0.373905 0  0.05 0.41 0  0.0306807 0.322655 0  0 0.35875 0  0.281851 0.320466 0  0.27452 0.371791 0  0.307331 0.358674 0  0.067417 0.302432 0  0.0367363 0.287277 0  0.307146 0.272089 0  0.325831 0.249523 0  0.333348 0.284782 0  0.255711 0.299536 0  0.288524 0.286419 0  2.07531 0.274257 0  2.03137 0.244376 0  2.07753 0.223523 0  2.01549 0.0947309 0  1.97886 0.052889 0  2.00042 0.14971 0  2.04866 0.138663 0  0.472869 0.268466 0  0.453206 0.216728 0  0.507451 0.243648 0  2.16277 0.177866 0  2.16277 0.126615 0  2.2 0.15375 0  1.90667 0.171923 0  1.88251 0.205894 0  1.85752 0.153456 0  1.88583 0.263404 0  1.83668 0.244938 0  0.604293 0.15721 0  0.647211 0.204279 0  0.661349 0.15522 0  0.359586 0.320304 0  0.37827 0.297737 0  0.155113 0.241194 0  0.145962 0.232044 0  0.164645 0.235355 0  0.259539 0.179205 0  0.262888 0.191705 0  0.248296 0.187059 0  0.281006 0.251159 0  1.0209 0.15944 0  1.05091 0.199813 0  1.01578 0.211881 0  1.26438 0.15009 0  1.23309 0.178102 0  1.27195 0.215407 0  1.29121 0.101019 0  1.33006 0.138324 0  0.928528 0.0477783 0  0.876147 0.0477783 0  0.890476 0 0  0.902594 0.143162 0  0.949987 0.133533 0  0.938381 0.181138 0  0.867963 0.0989313 0  0.856357 0.146537 0  0.829911 0.051153 0  1.41178 0.0446269 0  1.35939 0.0446269 0  1.41429 0 0  1.37386 0.14601 0  1.34705 0.195081 0  1.41844 0.0952074 0  1.43542 0.151964 0  1.47333 0.0505805 0  0.77753 0.051153 0  0.785714 0 0  0.811595 0.153496 0  0.846226 0.197726 0  0.773472 0.10329 0  0.76334 0.154479 0  0.729275 0.0521365 0  1.52571 0.0505805 0  1.51905 0 0  1.48951 0.152913 0  1.44494 0.203716 0  1.53117 0.102042 0  1.54069 0.153795 0  1.57689 0.0514615 0  1.9804 0.259735 0  1.98262 0.209001 0  1.82001 0.356224 0  1.87 0.356224 0  1.85 0.41 0  1.78468 0.261043 0  1.78135 0.203532 0  1.72289 0.370464 0  1.77289 0.370464 0  1.75 0.41 0  1.7929 0.316688 0  1.73757 0.275282 0  1.62499 0.361919 0  1.67499 0.361919 0  1.65 0.41 0  1.69788 0.322383 0  1.68966 0.266738 0  1.62618 0.259394 0  1.66586 0.212294 0  0.624211 0.356183 0  0.674211 0.356183 0  0.65 0.41 0  0.619288 0.254318 0  0.676344 0.252328 0  1.52272 0.359254 0  1.57272 0.359254 0  1.55 0.41 0  1.59771 0.311173 0  1.57391 0.256729 0  1.52224 0.256587 0  1.55071 0.204809 0  0.727843 0.358078 0  0.777843 0.358078 0  0.75 0.41 0  0.702053 0.304261 0  0.729977 0.254223 0  0.778575 0.25542 0  0.752865 0.203487 0  1.41334 0.362405 0  1.46334 0.362405 0  1.45 0.41 0  1.48606 0.311659 0  1.46286 0.259738 0  1.40876 0.258788 0  0.835262 0.354298 0  0.885262 0.354298 0  0.85 0.41 0  0.813105 0.302376 0  0.835994 0.25164 0  0.880756 0.244682 0  0.934673 0.369934 0  0.984673 0.369934 0  0.95 0.41 0  0.919935 0.314231 0  0.676894 0.0521365 0  0.680952 0 0  0.714742 0.153281 0  0.671824 0.106212 0  0.623501 0.054075 0  1.62927 0.0514615 0  1.62381 0 0  1.59236 0.153937 0  1.63638 0.104124 0  1.6464 0.155137 0  1.6833 0.052662 0  1.73568 0.052662 0  1.72857 0 0  1.70988 0.16248 0  1.74293 0.105083 0  1.7624 0.16224 0  1.7882 0.052421 0  1.84058 0.052421 0  1.83333 0 0  1.8144 0.146135 0  1.83857 0.112164 0  1.88369 0.059743 0  1.12461 0.36242 0  1.17461 0.36242 0  1.15 0.41 0  1.31425 0.231839 0  1.28296 0.259852 0  1.35806 0.239526 0  1.37597 0.295546 0  1.92648 0.052889 0  1.9381 0 0  1.92447 0.112632 0  1.94945 0.165069 0  0.352254 0.37163 0  0.402254 0.37163 0  0.35 0.41 0  0.513557 0.352693 0  0.563557 0.352693 0  0.55 0.41 0  0.587767 0.298876 0  0.558634 0.250827 0  0.538972 0.19909 0  0.452254 0.37163 0  0.45 0.41 0  0.465811 0.314323 0  0.411566 0.287403 0  0.385328 0.251881 0  0.119958 0.214566 0  0.0890808 0.22855 0  0.104349 0.253071 0  0.22452 0.371791 0  0.25 0.41 0  0.291071 0.0372376 0  0.23869 0.0372376 0  0.261905 0 0  0.265876 0.243536 0  0.256335 0.223291 0  0.252842 0.245245 0  0.284498 0.229205 0  1.03246 0.113355 0  0.997337 0.125424 0  0.961549 0.0874474 0  0.922006 0.218733 0  0.969399 0.209103 0  0.961184 0.288282 0  0.911774 0.272647 0  1.22926 0.371775 0  1.27927 0.371775 0  1.25 0.41 0  1.02634 0.375414 0  1.07634 0.375414 0  1.05 0.41 0  1.01101 0.335348 0  2.11607 0.0336915 0  2.16845 0.0336915 0  2.14762 0 0  2.16845 0.0849415 0  2.2 0.05125 0  2.10032 0.0755333 0  0.556277 0.159403 0  0.570414 0.110343 0  0.505093 0.152224 0  1.32105 0.379464 0  1.37105 0.379464 0  1.35 0.41 0  1.33369 0.312607 0  1.38439 0.331869 0  0.999406 0.249476 0  1.00757 0.29106 0  1.30031 0.34124 0  1.2919 0.304917 0  2.13122 0.109057 0  2.09464 0.117207 0  0.272572 0.202495 0  0.259684 0.21079 0  0.248296 0.212941 0  0.287702 0.21012 0  2.1235 0.202068 0  2.07956 0.172187 0  1.02826 0.039669 0  0.975878 0.039669 0  0.995238 0 0  1.04923 0.29654 0  1.10095 0.327835 0  1.0975 0.283547 0  0.57112 0.054075 0  0.576191 0 0  0.523104 0.0562685 0  1.24959 0.288485 0  1.20387 0.324195 0  1.19493 0.27913 0  0.238785 0.277481 0  0.232112 0.311528 0  0.226118 0.334465 0  0.201599 0.372674 0  1.14453 0.252784 0  1.19024 0.217074 0  1.09281 0.221491 0  0.209191 0.31241 0  0.220093 0.266387 0  0.243692 0.254395 0  0.235355 0.235355 0  0.478422 0.113732 0  0.461117 0.153419 0  1.91906 0.370252 0  1.96907 0.370252 0  1.95 0.41 0  1.98364 0.312807 0  2.01457 0.352555 0  1.88907 0.316476 0  1.9349 0.277432 0  1.18268 0.151757 0  1.09794 0.16905 0  1.12872 0.0441853 0  1.07634 0.0441853 0  1.1 0 0  1.05697 0.0838543 0  1.08054 0.117871 0  1.12244 0.139549 0  1.16529 0.100578 0  0.304922 0.078474 0  0.328137 0.0412364 0  0.380518 0.0412364 0  0.366667 0 0  0.388217 0.0986999 0  0.426747 0.0574635 0  0.31696 0.10719 0  0.279894 0.103191 0  0.272523 0.134971 0  0.260485 0.106255 0  0.228413 0.120237 0  0.214357 0.129569 0  0.239057 0.147367 0  1.30701 0.0446269 0  1.30952 0 0  1.24133 0.0563925 0  0.235785 0.0884571 0  1.18895 0.0563925 0  1.20476 0 0  0.206618 0.0512195 0  0.173851 0.0850782 0  0.0367363 0.236028 0  0 0.25625 0  0.264445 0.160722 0  0.248207 0.156517 0  0.235355 0.164645 0  0.283855 0.157658 0  0.130694 0.182523 0  0.127344 0.195023 0  0.151704 0.187059 0  0.127532 0.162357 0  0.153537 0.154834 0  0.0523445 0.197523 0  0.14336 0.274103 0  0.112483 0.288087 0  0.31508 0.181185 0  0.327006 0.207895 0  0.323158 0.155434 0  0.0866493 0.050388 0  0.0342684 0.050388 0  0.052381 0 0  0.0342684 0.101638 0  0 0.05125 0  0.421376 0.210817 0  0.455958 0.185999 0  0.429287 0.147508 0  0.106428 0.323464 0  0.353208 0.220588 0  0.106263 0.0842467 0  0.0342684 0.152888 0  0 0.15375 0  0.109456 0.117722 0  0.147182 0.101193 0  0.0866129 0.145411 0  0.162687 0.145684 0  0.164645 0.164645 0  0.348186 0.130716 0  0.386504 0.210254 0  0.389256 0.179524 0  0.394415 0.146944 0  0.125747 0.359559 0  0.175747 0.359559 0  0.15 0.41 0  0.177345 0.322233 0  0.142613 0.219544 0  0.151704 0.212941 0  0.499367 0.0284331 0  0.446986 0.0284331 0  0.471429 0 0  0.498661 0.0847016 0  0.454685 0.0858966 0  0.201856 0.126219 0  0.212941 0.151704 0  0.18334 0.299296 0  0.175187 0.142334 0  0.187059 0.151704 0  0.177044 0.118554 0  2.15421 0.327585 0  2.15421 0.378834 0  2.2 0.35875 0  2.10421 0.378834 0  2.15 0.41 0  2.05422 0.378
[...]
<PointData  Vectors="u"> 
<DataArray  type="Float32"  Name="u"  NumberOfComponents="3" format="ascii">0.000000e+00 0.000000e+00 0.000000e+00  0.000000e+00 0.000000e+00 0.000000e+00  0.000000e+00 0.000000e+00 0.000000e+00  0.000000e+00 0.000000e+00 0.000000e+00  0.000000e+00 -1.000000e+00 0.000000e+00  0.000000e+00 1.000000e+00 0.000000e+00  1.000000e+00 0.000000e+00 0.000000e+00  -1.000000e+00 0.000000e+00 0.000000e+00  0.000000e+00 0.000000e+00 0.000000e+00  0.000000e+00 0.000000e+00 0.000000e+00  0.000000e+00 0.000000e+00 0.000000e+00  0.000000e+00 0.000000e+00 0.000000e+00  0.000000e+00 0.000000e+00 0.000000e+00  0.000000e+00 0.000000e+00 0.000000e+00  0.000000e+00 0.000000e+00 0.000000e+00  0.000000e+00 0.000000e+00 0.000000e+00  0.000000e+00 0.000000e+00 0.000000e+00  0.000000e+00 0.000000e+00 0.000000e+00  0.000000e+00 0.000000e+00 0.000000e+00  0.000000e+00 0.000000e+00 0.000000e+00  0.000000e+00 0.000000e+00 0.000000e+00  0.000000e+00 0.000000e+00 0.000000e+00  0.000000e+00 0.000000e+00 0.000000e+00  0.000000e+00 0.000000e+00 0.000000e+00  0.000000e+00 0.000000e+00 0.000000e+00  0.000000e+00 0.000000e+00 0.000000e+00  0.000000e+00 0.000000e+00 0.000000e+00  0.000000e+00 0.000000e+00 0.000000e+00  1.079923e+00 4.362244e-02 0.000000e+00  1.595516e+00 1.688974e-01 0.000000e+00  1.057386e+00 1.033796e-01 0.000000e+00  0.000000e+00 0.000000e+00 0.000000e+00  0.000000e+00 0.000000e+00 0.000000e+00  0.000000e+00 0.000000e+00 0.000000e+00  0.000000e+00 0.000000e+00 0.000000e+00  0.000000e+00 0.000000e+00 0.000000e+00  0.000000e+00 0.000000e+00 0.000000e+00  0.000000e+00 0.000000e+00 0.000000e+00  0.000000e+00 0.000000e+00 0.000000e+00  0.000000e+00 0.000000e+00 0.000000e+00  0.000000e+00 0.000000e+00 0.000000e+00  0.000000e+00 0.000000e+00 0.000000e+00  0.000000e+00 0.000000e+00 0.000000e+00  0.000000e+00 0.000000e+00 0.000000e+00  0.000000e+00 0.000000e+00 0.000000e+00  0.000000e+00 0.000000e+00 0.000000e+00  0.000000e+00 0.000000e+00 0.000000e+00  0.000000e+00 0.000000e+00 0.000000e+00  0.000000e+00 0.000000e+00 0.000000e+00  0.000000e+00 0.000000e+00 0.000000e+00  0.000000e+00 0.000000e+00 0.000000e+00  0.000000e+00 0.000000e+00 0.000000e+00  1.125000e+00 0.000000e+00 0.000000e+00  1.500000e+00 0.000000e+00 0.000000e+00  1.125000e+00 0.000000e+00 0.000000e+00  -5.000023e-01 -8.660241e-01 0.000000e+00  -8.660241e-01 -5.000023e-01 0.000000e+00  -8.660241e-01 5.000023e-01 0.000000e+00  -5.000023e-01 8.660241e-01 0.000000e+00  5.000023e-01 8.660241e-01 0.000000e+00  8.660241e-01 5.000023e-01 0.000000e+00  8.660241e-01 -5.000023e-01 0.000000e+00  5.000023e-01 -8.660241e-01 0.000000e+00  6.596438e-01 -2.053891e-01 0.000000e+00  1.693147e+00 2.493071e-01 0.000000e+00  1.612280e+00 -3.442261e-01 0.000000e+00  1.336962e+00 1.673345e-01 0.000000e+00  1.623794e+00 -9.580900e-02 0.000000e+00  1.649357e+00 4.600676e-02 0.000000e+00  1.514998e+00 2.616892e-01 0.000000e+00  1.328011e+00 -3.948000e-01 0.000000e+00  1.427477e+00 7.977857e-02 0.000000e+00  9.805590e-01 -2.990625e-01 0.000000e+00  1.566664e+00 -3.369884e-01 0.000000e+00  1.554041e+00 5.380595e-01 0.000000e+00  1.598002e+00 -4.264021e-02 0.000000e+00  1.509551e+00 2.393753e-01 0.000000e+00  1.541678e+00 -2.587848e-01 0.000000e+00  2.065682e+00 -2.544585e-02 0.000000e+00  1.675142e+00 2.352498e-01 0.000000e+00  1.412017e+00 -5.948507e-02 0.000000e+00  9.007819e-01 -5.164617e-02 0.000000e+00  1.285210e+00 9.629193e-02 0.000000e+00  1.219262e+00 -2.232817e-01 0.000000e+00  9.017435e-01 9.447144e-02 0.000000e+00  -2.394378e-01 1.996453e-01 0.000000e+00  8.850851e-01 1.677395e-01 0.000000e+00  2.484317e-01 1.908973e-01 0.000000e+00  -3.610889e-02 9.213790e-02 0.000000e+00  9.111289e-01 4.562614e-02 0.000000e+00  1.235753e+00 1.125609e-01 0.000000e+00  1.092366e+00 -1.022866e-01 0.000000e+00  1.706099e+00 -2.304685e-01 0.000000e+00  1.402253e+00 -1.084004e-01 0.000000e+00  1.687343e+00 -2.628438e-01 0.000000e+00  1.237010e+00 1.000309e-01 0.000000e+00  9.771489e-01 4.987706e-02 0.000000e+00  1.053782e+00 -1.044231e-01 0.000000e+00  8.768237e-01 3.314068e-02 0.000000e+00  1.169956e+00 1.496235e-02 0.000000e+00  1.256630e+00 6.463142e-02 0.000000e+00  1.280847e+00 -1.506242e-01 0.000000e+00  1.046260e+00 7.832022e-02 0.000000e+00  1.068109e+00 7.069527e-02 0.000000e+00  9.302888e-01 1.336365e-02 0.000000e+00  1.084890e+00 -6.324856e-02 0.000000e+00  8.480286e-01 -3.087961e-02 0.000000e+00  9.026424e-01 -7.121741e-02 0.000000e+00  9.435656e-01 3.387995e-02 0.000000e+00  8.965714e-01 5.276358e-02 0.000000e+00  1.051649e+00 -9.034587e-02 0.000000e+00  1.043914e+00 3.719701e-02 0.000000e+00  9.387982e-01 -5.241483e-02 0.000000e+00  1.769653e-01 -5.842525e-01 0.000000e+00  8.803613e-01 3.813930e-01 0.000000e+00  1.391079e+00 -1.153094e-01 0.000000e+00  1.501994e+00 -2.488738e-01 0.000000e+00  1.543625e+00 5.958648e-01 0.000000e+00  1.461918e+00 -5.726758e-02 0.000000e+00  1.577964e+00 6.368341e-03 0.000000e+00  1.201114e+00 -2.785519e-01 0.000000e+00  1.497388e+00 1.084220e-01 0.000000e+00  -2.265419e-01 2.670508e-01 0.000000e+00  1.633027e+00 2.993785e-01 0.000000e+00  7.449966e-01 -1.322812e-02 0.000000e+00  1.589742e+00 3.070106e-01 0.000000e+00  9.676333e-01 -6.793583e-02 0.000000e+00  1.230634e+00 -2.072911e-02 0.000000e+00  7.900581e-01 -5.305644e-03 0.000000e+00  1.309861e+00 3.421558e-01 0.000000e+00  8.538101e-01 1.516645e-02 0.000000e+00  1.828619e+00 6.029911e-01 0.000000e+00  1.447345e+00 3.061880e-01 0.000000e+00  1.262088e+00 -2.033832e-01 0.000000e+00  1.093053e+00 -4.631893e-02 0.000000e+00  8.161062e-01 2.397782e-02 0.000000e+00  1.459234e+00 1.844227e-01 0.000000e+00  2.010831e+00 4.082612e-01 0.000000e+00  1.951678e+00 3.141055e-01 0.000000e+00  2.010458e+00 -1.862726e-01 0.000000e+00  1.772872e+00 -9.834898e-01 0.000000e+00  1.302909e+00 4.625358e-01 0.000000e+00  4.628992e-01 1.356096e-01 0.000000e+00  1.162265e+00 -2.191758e-01 0.000000e+00  1.223997e+00 1.680351e-01 0.000000e+00  7.045611e-01 1.362606e-01 0.000000e+00  7.528302e-01 5.886560e-03 0.000000e+00  1.160490e+00 8.223615e-02 0.000000e+00  1.543634e+00 5.907555e-02 0.000000e+00  1.355230e+00 1.842594e-01 0.000000e+00  5.217210e-01 -1.666799e-02 0.000000e+00  4.907135e-01 -2.253153e-02 0.000000e+00  0.000000e+00 0.000000e+00 0.000000e+00  9.228174e-01 -3.886341e-02 0.000000e+00  7.351351e-01 -8.905557e-02 0.000000e+00  0.000000e+00 0.000000e+00 0.000000e+00  5.608943e-01 7.670400e-02 0.000000e+00  4.905915e-01 3.226185e-02 0.000000e+00  0.000000e+00 0.000000e+00 0.000000e+00  1.026500e+00 5.658877e-02 0.000000e+00  6.562500e-01 0.000000e+00 0.000000e+00  1.918879e+00 1.430643e-01 0.000000e+00  1.301212e+00 2.795795e-02 0.000000e+00  1.466973e+00 -3.902623e-02 0.000000e+00  1.160610e+00 1.348412e-01 0.000000e+00  1.273934e+00 6.023340e-02 0.000000e+00  7.346954e-01 8.834865e-02 0.000000e+00  7.738592e-02 3.020928e-02 0.000000e+00  1.526978e+00 -1.520012e-01 0.000000e+00  1.990178e+00 3.819460e-01 0.000000e+00  1.434407e+00 1.093106e-01 0.000000e+00  1.332259e+00 -1.533855e-01 0.000000e+00  1.593076e+00 -2.651471e-01 0.000000e+00  1.608451e+00 -2.354069e-01 0.000000e+00  9.215360e-01 -6.869188e-02 0.000000e+00  5.677808e-01 -1.960558e-02 0.000000e+00  1.235780e+00 -1.502583e-01 0.000000e+00  1.258088e+00 -1.494614e-01 0.000000e+00  3.877826e-01 -1.936755e-01 0.000000e+00  6.465483e-01 -3.359199e-01 0.000000e+00  6.095939e-01 1.459038e-01 0.000000e+00  1.594513e+00 4.073164e-02 0.000000e+00  1.305462e+00 2.842406e-02 0.000000e+00  1.462157e+00 1.084495e-01 0.000000e+00  1.341067e+00 1.012407e-01 0.000000e+00  1.502984e+00 1.975857e-01 0.000000e+00  1.311889e+00 1.663785e-01 0.000000e+00  1.513460e+00 1.411396e-01 0.000000e+00  1.482666e+00 2.957187e-01 0.000000e+00  1.278627e+00 2.344861e-01 0.000000e+00  1.153948e+00 1.320554e-01 0.000000e+00  1.072507e+00 -4.779552e-02 0.000000e+00  1.867289e+00 -2.512762e-01 0.000000e+00  1.860481e+00 -3.968709e-01 0.000000e+00  8.682775e-01 8.034394e-01 0.000000e+00  6.492539e-01 5.690205e-01 0.000000e+00  -7.071068e-01 -7.071068e-01 0.000000e+00  1.965673e-02 1.820163e-01 0.000000e+00  -6.241379e-02 2.141463e-01 0.000000e+00  2.588197e-01 9.659256e-01 0.000000e+00  -1.213452e-02 2.541957e-01 0.000000e+00  1.052321e+00 7.895212e-02 0.000000e+00  1.359962e+00 1.891759e-01 0.000000e+00  1.540256e+00 3.190893e-01 0.000000e+00  1.381532e+00 -1.556237e-01 0.000000e+00  1.457502e+00 -2.752472e-01 0.000000e+00  1.667582e+00 -2.303945e-01 0.000000e+00  9.999323e-01 -6.367926e-02 0.000000e+00  1.326773e+00 -8.452964e-03 0.000000e+00  3.671275e-01 -1.811649e-02 0.000000e+00  3.479924e-01 -4.985207e-03 0.000000e+00  0.000000e+00 0.000000e+00 0.000000e+00  1.448287e+00 7.930695e-02 0.000000e+00  1.178431e+00 9.948766e-03 0.000000e+00  1.604736e+00 1.761950e-01 0.000000e+00  9.283696e-01 1.994866e-02 0.000000e+00  1.500364e+00 1.051636e-01 0.000000e+00  3.822038e-01 3.441947e-03 0.000000e+00  4.572555e-01 1.704400e-02 0.000000e+00  4.745484e-01 8.886536e-03 0.000000e+00  0.000000e+00 0.000000e+00 0.000000e+00  1.335025e+00 9.737375e-02 0.000000e+00  1.600457e+00 1.055318e-01 0.000000e+00  9.280269e-01 6.477166e-02 0.000000e+00  1.217165e+00 1.676868e-01 0.000000e+00  4.914918e-01 8.923426e-03 0.000000e+00  3.855434e-01 -9.352511e-03 0.000000e+00  0.000000e+00 0.000000e+00 0.000000e+00  1.369011e+00 3.002280e-02 0.000000e+00  1.522579e+00 -1.844577e-01 0.000000e+00  1.092106e+00 -2.090910e-02 0.000000e+00  1.137566e+00 -7.783330e-02 0.000000e+00  3.785466e-01 -3.223994e-02 0.000000e+00  4.811469e-01 -5.070741e-03 0.000000e+00  0.000000e+00 0.000000e+00 0.000000e+00  1.130622e+00 8.998664e-02 0.000000e+00  1.435111e+00 2.686070e-01 0.000000e+00  8.647013e-01 -8.576649e-03 0.000000e+00  1.135824e+00 -5.178177e-02 0.000000e+00  5.121482e-01 -2.024858e-02 0.000000e+00  1.604734e+00 -1.798176e-01 0.000000e+00  1.546003e+00 -1.731662e-01 0.000000e+00  7.859157e-01 3.564679e-02 0.000000e+00  8.157058e-01 1.636618e-02 0.000000e+00  0.000000e+00 0.000000e+00 0.000000e+00  1.350310e+00 2.153131e-01 0.000000e+00  1.585298e+00 1.743011e-01 0.000000e+00  5.326502e-01 7.092989e-03 0.000000e+00  5.625558e-01 2.257067e-02 0.000000e+00  0.000000e+00 0.000000e+00 0.000000e+00  1.051612e+00 1.028510e-01 0.000000e+00  1.208133e+00 6.042371e-02 0.000000e+00  6.736621e-01 -4.085652e-02 0.000000e+00  6.327793e-01 -2.375131e-02 0.000000e+00  0.000000e+00 0.000000e+00 0.000000e+00  9.472661e-01 -1.843792e-02 0.000000e+00  1.338744e+00 -1.256696e-01 0.000000e+00  1.536532e+00 -2.976633e-01 0.000000e+00  1.634441e+00 -3.156399e-01 0.000000e+00  1.364433e+00 -1.102449e-01 0.000000e+00  1.190688e+00 -1.477858e-01 0.000000e+00  0.000000e+00 0.000000e+00 0.000000e+00  1.313963e+00 6.681447e-01 0.000000e+00  1.577612e+00 2.021890e-01 0.000000e+00  8.217378e-01 -1.501993e-02 0.000000e+00  7.713861e-01 -3.952276e-02 0.000000e+00  0.000000e+00 0.000000e+00 0.000000e+00  1.261096e+00 -1.454877e-01 0.000000e+00  1.643600e+00 -2.368456e-01 0.000000e+00  1.685674e+00 -2.898691e-02 0.000000e+00  1.478805e+00 -1.664294e-01 0.000000e+00  9.563400e-01 -6.162800e-02 0.000000e+00  8.734643e-01 1.343877e-02 0.000000e+00  0.000000e+00 0.000000e+00 0.000000e+00  1.869451e+00 -3.363385e-01 0.000000e+00  1.639617e+00 -2.883328e-01 0.000000e+00  1.633207e+00 -4.898846e-01 0.000000e+00  1.106216e+00 -4.551035e-01 0.000000e+00  7.602122e-01 2.631158e-02 0.000000e+00  7.898638e-01 1.195280e-02 0.000000e+00  0.000000e+00 0.000000e+00 0.000000e+00  1.385749e+00 1.441549e-02 0.000000e+00  1.615297e+00 2.182483e-01 0.000000e+00  1.517991e+00 3.035915e-01 0.000000e+00  9.480843e-01 4.605996e-02 0.000000e+00  1.028233e+00 -5.512725e-03 0.000000e+00  0.000000e+00 0.000000e+00 0.000000e+00  1.258755e+00 -1.335669e-01 0.000000e+00  1.556143e+00 -3.835240e-01 0.000000e+00  1.572326e+00 -1.180882e-01 0.000000e+00  8.751022e-01 -2.255446e-02 0.000000e+00  8.141445e-01 -7.170859e-03 0.000000e+00  0.000000e+00 0.000000e+00 0.000000e+00  8.382905e-01 7.366183e-02 0.000000e+00  3.459049e-01 -4.049582e-02 0.000000e+00  0.000000e+00 0.000000e+00 0.000000e+00  1.041033e+00 -1.457929e-01 0.000000e+00  9.645717e-01 -9.385685e-02 0.000000e+00  3.593476e-01 -2.055495e-02 0.000000e+00  5.493020e-01 -2.649074e-02 0.000000e+00  0.000000e+00 0.000000e+00 0.000000e+00  1.227300e+00 -1.788695e-01 0.000000e+00  9.927883e-01 -9.558214e-02 0.000000e+00  1.373321e+00 -2.057706e-01 0.000000e+00  5.991967e-01 -1.968107e-02 0.000000e+00  6.155321e-01 -5.477512e-04 0.000000e+00  0.000000e+00 0.000000e+00 0.000000e+00  1.539929e+00 -9.001404e-02 0.000000e+00  1.106995e+00 1.021431e-02 0.000000e+00  1.537239e+00 7.256789e-02 0.000000e+00  6.025607e-01 1.629200e-02 0.000000e+00  5.731307e-01 2.121410e-02 0.000000e+00  0.000000e+00 0.000000e+00 0.000000e+00  1.353975e+00 1.424213e-01 0.000000e+00  1.065217e+00 9.626153e-02 0.000000e+00  6.180303e-01 1.716742e-02 0.000000e+00  8.713125e-01 -4.343053e-03 0.000000e+00  8.316160e-01 -2.909453e-02 0.000000e+00  0.000000e+00 0.000000e+00 0.000000e+00  1.591199e+00 -4.342128e-04 0.000000e+00  1.430989e+00 -1.381518e-01 0.000000e+00  1.524963e+00 2.057669e-01 0.000000e+00  1.211714e+00 1.614523e-01 0.000000e+00  5.439074e-01 -1.100047e-03 0.000000e+00  0.000000e+00 0.000000e+00 0.000000e+00  9.696569e-01 4.212358e-03 0.000000e+00  1.279151e+00 -3.783437e-02 0.000000e+00  1.354448e+00 -9.019650e-02 0.000000e+00  1.176671e+00 -8.185785e-02 0.000000e+00  0.000000e+00 0.000000e+00 0.000000e+00  1.373706e+00 7.814956e-02 0.000000e+00  1.459206e+00 1.747715e-02 0.000000e+00  0.000000e+00 0.000000e+00 0.000000e+00  1.174458e+00 1.640794e-02 0.000000e+00  8.794845e-01 7.399835e-01 0.000000e+00  1.764861e+00 7.000457e-01 0.000000e+00  1.075210e+00 -3.274883e-02 0.000000e+00  0.000000e+00 0.000000e+00 0.000000e+00  1.317266e+00 -1.049862e-01 0.000000e+00  1.523868e+00 -4.625829e-01 0.000000e+00  3.880346e-01 -4.952487e-01 0.000000e+00  8.766696e-01 -8.625823e-02 0.000000e+00  1.284420e+00 -1.636713e-02 0.000000e+00  1.199347e+00 1.976735e-01 0.000000e+00  1.132092e+00 1.051974e-01 0.000000e+00  0.000000e+00 0.000000e+00 0.000000e+00  1.021032e+00 8.578061e-02 0.000000e+00  1.128802e+00 1.825740e-02 0.000000e+00  0.000000e+00 0.000000e+00 0.000000e+00  -1.466557e-01 3.059912e-01 0.000000e+00  -2.551089e-01 5.010318e-01 0.000000e+00  -2.082049e-01 3.326698e-01 0.000000e+00  -2.626713e-01 2.168373e-01 0.000000e+00  9.428522e-01 9.055399e-03 0.000000e+00  9.892830e-01 -1.443439e-02 0.000000e+00  7.889292e-01 -5.122896e-02 0.000000e+00  1.677432e+00 1.978287e-01 0.000000e+00  1.630078e+00 3.252709e-01 0.000000e+00  1.150321e+00 2.146849e-01 0.000000e+00  1.314494e+00 1.394560e-01 0.000000e+00  6.364345e-01 -3.745914e-02 0.000000e+00  5.945176e-01 -1.949996e-02 0.000000e+00  0.000000e+00 0.000000e+00 0.000000e+00  6.889331e-01 2.581671e-03 0.000000e+00  6.934903e-01 1.384448e-02 0.000000e+00  0.000000e+00 0.000000e+00 0.000000e+00  1.260275e+00 -2.450994e-02 0.000000e+00  4.479999e-01 -6.681380e-03 0.000000e+00  4.418608e-01 -2.856199e-03 0.000000e+00  0.000000e+00 0.000000e+00 0.000000e+00  9.467004e-01 1.521276e-02 0.000000e+00  6.141922e-01 6.636846e-03 0.000000e+00  8.589141e-01 -2.889776e-02 0.000000e+00  1.515610e+00 4.809286e-01 0.000000e+00  1.105712e+00 1.947357e-01 0.000000e+00  1.774130e+00 5.016276e-01 0.000000e+00  4.575076e-01 -1.232861e-03 0.000000e+00  4.808397e-01 1.248180e-02 0.000000e+00  0.000000e+00 0.000000e+00 0.000000e+00  1.016619e+00 4.256888e-02 0.000000e+00  1.026636e+00 6.217686e-02 0.000000e+00  1.638057e+00 3.613168e-01 0.000000e+00  1.387166e+00 2.083424e-01 0.000000e+00  9.044813e-01 -2.540194e-02 0.000000e+00  1.030093e+00 -4.135818e-02 0.000000e+00  1.165640e+00 -1.715214e-02 0.000000e+00  1.201160e+00 -7.228678e-02 0.000000e+00  -1.538170e-01 1.488882e-01 0.000000e+00  -1.607257e-01 4.343112e-01 0.000000e+00  -2.588197e-01 9.659256e-01 0.000000e+00  -3.051610e-01 1.388007e-01 0.000000e+00  1.628984e+00 -9.337677e-02 0.000000e+00  1.506943e+00 -1.846901e-01 0.000000e+00  3.216895e-01 3.505367e-03 0.000000e+00  3.126273e-01 -9.032072e-03 0.000000e+00  0.000000e+00 0.000000e+00 0.000000e+00  1.552157e+00 9.099378e-02 0.000000e+00  1.350730e+00 -5.318982e-02 0.000000e+00  1.732849e+00 -4.133279e-02 0.000000e+00  3.842052e-01 3.013226e-02 0.000000e+00  0.000000e+00 0.000000e+00 0.000000e+00  5.204585e-01 9.839835e-02 0.000000e+00  1.230032e+00 -1.748404e-01 0.000000e+00  1.137920e+00 -1.015673e-01 0.000000e+00  1.510385e+00 -2.904564e-01 0.000000e+00  1.099088e+00 2.541698e-01 0.000000e+00  1.829677e+00 3.898746e-01 0.000000e+00  1.576822e+00 3.003570e-01 0.000000e+00  1.060621e+00 1.266680e-01 0.000000e+00  1.736111e+00 -2.579948e-01 0.000000e+00  1.629541e+00 -3.957317e-01 0.000000e+00  1.566620e+00 -2.751662e-03 0.000000e+00  1.618372e+00 4.420686e-01 0.000000e+00  3.806110e-01 1.473732e-01 0.000000e+00  -1.098833e-01 2.681054e-01 0.000000e+00  -7.071068e-01 7.071068e-01 0.000000e+00  1.497639e+00 3.487867e-01 0.000000e+00  1.862860e+00 4.296149e-01 0.000000e+00  6.224562e-01 -9.146917e-03 0.000000e+00  6.045109e-01 -1.302837e-02 0.000000e+00  0.000000e+00 0.000000e+00 0.000000e+00  1.227505e+00 -1.108699e-01 0.000000e+00  7.619889e-01 -3.510317e-02 0.000000e+00  1.256163e+00 2.557175e-02 0.000000e+00  1.552968e+00 -2.822705e-02 0.000000e+00  1.107621e+00 -1.341884e-01 0.000000e+00  9.660358e-01 -2.563681e-02 0.000000e+00  3.455414e-01 -7.869582e-04 0.000000e+00  3.549014e-01 1.007113e-02 0.000000e+00  0.000000e+00 0.000000e+00 0.000000e+00  7.908314e-01 2.332026e-02 0.000000e+00  9.492227e-01 3.964417e-02 0.000000e+00  9.181891e-01 -7.611696e-03 0.000000e+00  9.216805e-01 -3.219248e-02 0.000000e+00  1.509260e+00 1.788482e-01 0.000000e+00  1.004116e+00 1.032445e-01 0.000000e+00  8.062356e-01 9.985318e-02 0.000000e+00  0.000000e+00 0.000000e+00 0.000000e+00  1.533325e+00 2.323250e-01 0.000000e+00  9.170569e-01 1.505358e-01 0.000000e+00  1.706749e+00 2.434794e-01 0.000000e+00  1.799429e+00 2.297587e-01 0.000000e+00  1.959604e+00 3.474377e-01 0.000000e+00  1.872059e+00 2.398008e-01 0.000000e+00  2.263206e+00 1.111917e-01 0.000000e+00  2.569466e+00 -7.743482e-02 0.000000e+00  1.514817e+00 5.544801e-01 0.000000e+00  4.725422e-01 -1.046114e-02 0.000000e+00  0.000000e+00 0.000000e+00 0.000000e+00  5.451134e-01 -3.670433e-02 0.000000e+00  1.805570e+00 -2.051209e-03 0.000000e+00  4.954738e-01 -3.449217e-02 0.000000e+00  0.000000e+00 0.000000e+00 0.000000e+00  1.182183e+00 -3.736632e-03 0.000000e+00  1.632604e+00 -3.198578e-01 0.000000e+00  1.462711e+00 2.648312e-03 0.000000e+00  1.406250e+00 0.000000e+00 0.000000e+00  5.600440e-01 1.835488e-01 0.000000e+00  6.159265e-01 2.196907e-01 0.000000e+00  7.071068e-01 7.071068e-01 0.000000e+00  1.020177e+00 2.766222e-01 0.000000e+00  9.458084e-01 -6.341397e-01 0.000000e+00  8.655622e-01 -4.186803e-01 0.000000e+00  2.588197e-01 -9.659256e-01 0.000000e+00  1.276690e+00 -8.141292e-01 0.000000e+00  1.514184e+00 -1.385836e+00 0.000000e+00  1.469368e+00 -1.238480e-01 0.000000e+00  1.186359e+00 5.512784e-01 0.000000e+00  1.220459e+00 2.813162e-01 0.000000e+00  1.529185e-01 1.198120e-01 0.000000e+00  -3.066068e-01 2.748747e-02 0.000000e+00  1.395215e+00 3.068835e-01 0.000000e+00  7.795109e-01 -1.377227e-01 0.000000e+00  6.697995e-01 -6.686951e-02 0.000000e+00  0.000000e+00 0.000000e+00 0.000000e+00  1.111770e+00 -1.009343e-01 0.000000e+00  6.562500e-01 0.000000e+00 0.000000e+00  1.167869e-01 -4.648355e-01 0.000000e+00  1.374922e+00 2.909537e-01 0.000000e+00  1.930671e+00 3.182693e-01 0.000000e+00  1.064476e+00 2.225699e-01 0.000000e+00  -5.106600e-01 -2.466529e-01 0.000000e+00  1.170953e+00 -2.474074e-01 0.000000e+00  1.396184e+00 -1.195478e-01 0.000000e+00  1.406250e+00 0.000000e+00 0.000000e+00  1.403819e+00 -5.222842e-01 0.000000e+00  1.556141e+00 -4.110009e-01 0.000000e+00  1.333970e+00 -3.603676e-01 0.000000e+00  2.022880e+00 -1.287620e+00 0.000000e+00  7.071068e-01 -7.071068e-01 0.000000e+00  1.878546e+00 2.850907e-01 0.000000e+00  -3.316905e-01 -4.533923e-01 0.000000e+00  8.351