<?xml version="1.0"?>
<VTKFile type="UnstructuredGrid"  version="0.1"  >
<UnstructuredGrid>
<Piece  NumberOfPoints="525" NumberOfCells="924">
<Points>
<DataArray  type="Float32"  NumberOfComponents="3"  format="ascii">0 0 0  2.2 0 0  2.2 0.41 0  0 0.41 0  0.15 0.2 0  0.25 0.2 0  0.2 0.15 0  0.2 0.25 0  0.104762 0 0  0.209524 0 0  0.314286 0 0  0.419048 0 0  0.52381 0 0  0.628571 0 0  0.733333 0 0  0.838095 0 0  0.942857 0 0  1.04762 0 0  1.15238 0 0  1.25714 0 0  1.3619 0 0  1.46667 0 0  1.57143 0 0  1.67619 0 0  1.78095 0 0  1.88571 0 0  1.99048 0 0  2.09524 0 0  2.2 0.1025 0  2.2 0.205 0  2.2 0.3075 0  2.1 0.41 0  2 0.41 0  1.9 0.41 0  1.8 0.41 0  1.7 0.41 0  1.6 0.41 0  1.5 0.41 0  1.4 0.41 0  1.3 0.41 0  1.2 0.41 0  1.1 0.41 0  1 0.41 0  0.9 0.41 0  0.8 0.41 0  0.7 0.41 0  0.6 0.41 0  0.5 0.41 0  0.4 0.41 0  0.3 0.41 0  0.2 0.41 0  0.1 0.41 0  0 0.3075 0  0 0.205 0  0 0.1025 0  0.156699 0.225 0  0.175 0.243301 0  0.225 0.243301 0  0.243301 0.225 0  0.243301 0.175 0  0.225 0.156699 0  0.175 0.156699 0  0.156699 0.175 0  0.352033 0.262216 0  1.04579 0.252253 0  1.24065 0.243419 0  0.985775 0.171509 0  1.30324 0.187395 0  0.890988 0.190768 0  1.39085 0.202767 0  0.801464 0.204685 0  1.49904 0.204666 0  0.704267 0.202289 0  1.60238 0.204951 0  0.487789 0.19191 0  1.72935 0.219637 0  1.83335 0.187427 0  2.03359 0.193642 0  0.314663 0.307348 0  0.249039 0.333583 0  2.12147 0.253405 0  2.06373 0.0836837 0  0.0734726 0.267055 0  0.143989 0.0677174 0  0.0613613 0.33781 0  0.299628 0.236829 0  0.527114 0.295386 0  0.262384 0.26549 0  0.275777 0.18341 0  1.74578 0.330928 0  1.84001 0.302448 0  1.64998 0.313838 0  0.648421 0.302367 0  1.54544 0.308508 0  0.755686 0.306156 0  1.42668 0.314809 0  0.870524 0.298596 0  1.22553 0.112785 0  1.05603 0.147372 0  0.969346 0.329867 0  1.32527 0.276284 0  2.02914 0.29511 0  1.88168 0.119486 0  1.79545 0.104842 0  1.35688 0.0892539 0  1.69041 0.105324 0  0.914199 0.0955566 0  1.58234 0.102923 0  0.61843 0.10815 0  1.47999 0.101161 0  0.725217 0.104273 0  0.821727 0.102306 0  1.96725 0.105778 0  0.418624 0.241547 0  0.135226 0.239087 0  1.14921 0.314841 0  0.404508 0.333259 0  0.590155 0.206269 0  2.12554 0.150731 0  1.93166 0.22436 0  0.104689 0.190046 0  0.267856 0.0744753 0  0.269368 0.221581 0  0.434446 0.114927 0  1.0089 0.0793381 0  0.953023 0.246698 0  1.25853 0.33355 0  1.05268 0.340828 0  2.1369 0.067383 0  0.522398 0.112537 0  1.3421 0.348929 0  0.215186 0.289473 0  0.203197 0.335348 0  1.13984 0.190728 0  1.93813 0.330504 0  1.10505 0.0883705 0  0.341988 0.0824728 0  0.253113 0.138035 0  0.291932 0.131907 0  0.203713 0.102439 0  0.150375 0.134668 0  0.151494 0.309119 0  0.354384 0.17896 0  0.0685367 0.100776 0  0.424128 0.180088 0  0.474925 0.0568661 0  2.10843 0.347669 0  2.16073 0.280452 0  2.16073 0.229202 0  2.2 0.25625 0  2.07949 0.0418418 0  2.02711 0.0418418 0  2.04286 0 0  0.176756 0.0338587 0  0.124375 0.0338587 0  0.157143 0 0  0.0806807 0.373905 0  0.0306807 0.373905 0  0.05 0.41 0  0.0306807 0.322655 0  0 0.35875 0  0.281851 0.320466 0  0.27452 0.371791 0  0.307331 0.358674 0  0.067417 0.302432 0  0.0367363 0.287277 0  0.307146 0.272089 0  0.325831 0.249523 0  0.333348 0.284782 0  0.255711 0.299536 0  0.288524 0.286419 0  2.07531 0.274257 0  2.03137 0.244376 0  2.07753 0.223523 0  2.01549 0.0947309 0  1.97886 0.052889 0  2.00042 0.14971 0  2.04866 0.138663 0  0.472869 0.268466 0  0.453206 0.216728 0  0.507451 0.243648 0  2.16277 0.177866 0  2.16277 0.126615 0  2.2 0.15375 0  1.90667 0.171923 0  1.88251 0.205894 0  1.85752 0.153456 0  1.88583 0.263404 0  1.83668 0.244938 0  0.604293 0.15721 0  0.647211 0.204279 0  0.661349 0.15522 0  0.359586 0.320304 0  0.37827 0.297737 0  0.155113 0.241194 0  0.145962 0.232044 0  0.164645 0.235355 0  0.259539 0.179205 0  0.262888 0.191705 0  0.248296 0.187059 0  0.281006 0.251159 0  1.0209 0.15944 0  1.05091 0.199813 0  1.01578 0.211881 0  1.26438 0.15009 0  1.23309 0.178102 0  1.27195 0.215407 0  1.29121 0.101019 0  1.33006 0.138324 0  0.928528 0.0477783 0  0.876147 0.0477783 0  0.890476 0 0  0.902594 0.143162 0  0.949987 0.133533 0  0.938381 0.181138 0  0.867963 0.0989313 0  0.856357 0.146537 0  0.829911 0.051153 0  1.41178 0.0446269 0  1.35939 0.0446269 0  1.41429 0 0  1.37386 0.14601 0  1.34705 0.195081 0  1.41844 0.0952074 0  1.43542 0.151964 0  1.47333 0.0505805 0  0.77753 0.051153 0  0.785714 0 0  0.811595 0.153496 0  0.846226 0.197726 0  0.773472 0.10329 0  0.76334 0.154479 0  0.729275 0.0521365 0  1.52571 0.0505805 0  1.51905 0 0  1.48951 0.152913 0  1.44494 0.203716 0  1.53117 0.102042 0  1.54069 0.153795 0  1.57689 0.0514615 0  1.9804 0.259735 0  1.98262 0.209001 0  1.82001 0.356224 0  1.87 0.356224 0  1.85 0.41 0  1.78468 0.261043 0  1.78135 0.203532 0  1.72289 0.370464 0  1.77289 0.370464 0  1.75 0.41 0  1.7929 0.316688 0  1.73757 0.275282 0  1.62499 0.361919 0  1.67499 0.361919 0  1.65 0.41 0  1.69788 0.322383 0  1.68966 0.266738 0  1.62618 0.259394 0  1.66586 0.212294 0  0.624211 0.356183 0  0.674211 0.356183 0  0.65 0.41 0  0.619288 0.254318 0  0.676344 0.252328 0  1.52272 0.359254 0  1.57272 0.359254 0  1.55 0.41 0  1.59771 0.311173 0  1.57391 0.256729 0  1.52224 0.256587 0  1.55071 0.204809 0  0.727843 0.358078 0  0.777843 0.358078 0  0.75 0.41 0  0.702053 0.304261 0  0.729977 0.254223 0  0.778575 0.25542 0  0.752865 0.203487 0  1.41334 0.362405 0  1.46334 0.362405 0  1.45 0.41 0  1.48606 0.311659 0  1.46286 0.259738 0  1.40876 0.258788 0  0.835262 0.354298 0  0.885262 0.354298 0  0.85 0.41 0  0.813105 0.302376 0  0.835994 0.25164 0  0.880756 0.244682 0  0.934673 0.369934 0  0.984673 0.369934 0  0.95 0.41 0  0.919935 0.314231 0  0.676894 0.0521365 0  0.680952 0 0  0.714742 0.153281 0  0.671824 0.106212 0  0.623501 0.054075 0  1.62927 0.0514615 0  1.62381 0 0  1.59236 0.153937 0  1.63638 0.104124 0  1.6464 0.155137 0  1.6833 0.052662 0  1.73568 0.052662 0  1.72857 0 0  1.70988 0.16248 0  1.74293 0.105083 0  1.7624 0.16224 0  1.7882 0.052421 0  1.84058 0.052421 0  1.83333 0 0  1.8144 0.146135 0  1.83857 0.112164 0  1.88369 0.059743 0  1.12461 0.36242 0  1.17461 0.36242 0  1.15 0.41 0  1.31425 0.231839 0  1.28296 0.259852 0  1.35806 0.239526 0  1.37597 0.295546 0  1.92648 0.052889 0  1.9381 0 0  1.92447 0.112632 0  1.94945 0.165069 0  0.352254 0.37163 0  0.402254 0.37163 0  0.35 0.41 0  0.513557 0.352693 0  0.563557 0.352693 0  0.55 0.41 0  0.587767 0.298876 0  0.558634 0.250827 0  0.538972 0.19909 0  0.452254 0.37163 0  0.45 0.41 0  0.465811 0.314323 0  0.411566 0.287403 0  0.385328 0.251881 0  0.119958 0.214566 0  0.0890808 0.22855 0  0.104349 0.253071 0  0.22452 0.371791 0  0.25 0.41 0  0.291071 0.0372376 0  0.23869 0.0372376 0  0.261905 0 0  0.265876 0.243536 0  0.256335 0.223291 0  0.252842 0.245245 0  0.284498 0.229205 0  1.03246 0.113355 0  0.997337 0.125424 0  0.961549 0.0874474 0  0.922006 0.218733 0  0.969399 0.209103 0  0.961184 0.288282 0  0.911774 0.272647 0  1.22926 0.371775 0  1.27927 0.371775 0  1.25 0.41 0  1.02634 0.375414 0  1.07634 0.375414 0  1.05 0.41 0  1.01101 0.335348 0  2.11607 0.0336915 0  2.16845 0.0336915 0  2.14762 0 0  2.16845 0.0849415 0  2.2 0.05125 0  2.10032 0.0755333 0  0.556277 0.159403 0  0.570414 0.110343 0  0.505093 0.152224 0  1.32105 0.379464 0  1.37105 0.379464 0  1.35 0.41 0  1.33369 0.312607 0  1.38439 0.331869 0  0.999406 0.249476 0  1.00757 0.29106 0  1.30031 0.34124 0  1.2919 0.304917 0  2.13122 0.109057 0  2.09464 0.117207 0  0.272572 0.202495 0  0.259684 0.21079 0  0.248296 0.212941 0  0.287702 0.21012 0  2.1235 0.202068 0  2.07956 0.172187 0  1.02826 0.039669 0  0.975878 0.039669 0  0.995238 0 0  1.04923 0.29654 0  1.10095 0.327835 0  1.0975 0.283547 0  0.57112 0.054075 0  0.576191 0 0  0.523104 0.0562685 0  1.24959 0.288485 0  1.20387 0.324195 0  1.19493 0.27913 0  0.238785 0.277481 0  0.232112 0.311528 0  0.226118 0.334465 0  0.201599 0.372674 0  1.14453 0.252784 0  1.19024 0.217074 0  1.09281 0.221491 0  0.209191 0.31241 0  0.220093 0.266387 0  0.243692 0.254395 0  0.235355 0.235355 0  0.478422 0.113732 0  0.461117 0.153419 0  1.91906 0.370252 0  1.96907 0.370252 0  1.95 0.41 0  1.98364 0.312807 0  2.01457 0.352555 0  1.88907 0.316476 0  1.9349 0.277432 0  1.18268 0.151757 0  1.09794 0.16905 0  1.12872 0.0441853 0  1.07634 0.0441853 0  1.1 0 0  1.05697 0.0838543 0  1.08054 0.117871 0  1.12244 0.139549 0  1.16529 0.100578 0  0.304922 0.078474 0  0.328137 0.0412364 0  0.380518 0.0412364 0  0.366667 0 0  0.388217 0.0986999 0  0.426747 0.0574635 0  0.31696 0.10719 0  0.279894 0.103191 0  0.272523 0.134971 0  0.260485 0.106255 0  0.228413 0.120237 0  0.214357 0.129569 0  0.239057 0.147367 0  1.30701 0.0446269 0  1.30952 0 0  1.24133 0.0563925 0  0.235785 0.0884571 0  1.18895 0.0563925 0  1.20476 0 0  0.206618 0.0512195 0  0.173851 0.0850782 0  0.0367363 0.236028 0  0 0.25625 0  0.264445 0.160722 0  0.248207 0.156517 0  0.235355 0.164645 0  0.283855 0.157658 0  0.130694 0.182523 0  0.127344 0.195023 0  0.151704 0.187059 0  0.127532 0.162357 0  0.153537 0.154834 0  0.0523445 0.197523 0  0.14336 0.274103 0  0.112483 0.288087 0  0.31508 0.181185 0  0.327006 0.207895 0  0.323158 0.155434 0  0.0866493 0.050388 0  0.0342684 0.050388 0  0.052381 0 0  0.0342684 0.101638 0  0 0.05125 0  0.421376 0.210817 0  0.455958 0.185999 0  0.429287 0.147508 0  0.106428 0.323464 0  0.353208 0.220588 0  0.106263 0.0842467 0  0.0342684 0.152888 0  0 0.15375 0  0.109456 0.117722 0  0.147182 0.101193 0  0.0866129 0.145411 0  0.162687 0.145684 0  0.164645 0.164645 0  0.348186 0.130716 0  0.386504 0.210254 0  0.389256 0.179524 0  0.394415 0.146944 0  0.125747 0.359559 0  0.175747 0.359559 0  0.15 0.41 0  0.177345 0.322233 0  0.142613 0.219544 0  0.151704 0.212941 0  0.499367 0.0284331 0  0.446986 0.0284331 0  0.471429 0 0  0.498661 0.0847016 0  0.454685 0.0858966 0  0.201856 0.126219 0  0.212941 0.151704 0  0.18334 0.299296 0  0.175187 0.142334 0  0.187059 0.151704 0  0.177044 0.118554 0  2.15421 0.327585 0  2.15421 0.378834 0  2.2 0.35875 0  2.10421 0.378834 0  2.15 0.41 0  2.05422 0.378
[...]
<PointData  Vectors="u"> 
<DataArray  type="Float32"  Name="u"  NumberOfComponents="3" format="ascii">0.000000e+00 0.000000e+00 0.000000e+00  0.000000e+00 0.000000e+00 0.000000e+00  0.000000e+00 0.000000e+00 0.000000e+00  0.000000e+00 0.000000e+00 0.000000e+00  0.000000e+00 -1.000000e+00 0.000000e+00  0.000000e+00 1.000000e+00 0.000000e+00  1.000000e+00 0.000000e+00 0.000000e+00  -1.000000e+00 0.000000e+00 0.000000e+00  0.000000e+00 0.000000e+00 0.000000e+00  0.000000e+00 0.000000e+00 0.000000e+00  0.000000e+00 0.000000e+00 0.000000e+00  0.000000e+00 0.000000e+00 0.000000e+00  0.000000e+00 0.000000e+00 0.000000e+00  0.000000e+00 0.000000e+00 0.000000e+00  0.000000e+00 0.000000e+00 0.000000e+00  0.000000e+00 0.000000e+00 0.000000e+00  0.000000e+00 0.000000e+00 0.000000e+00  0.000000e+00 0.000000e+00 0.000000e+00  0.000000e+00 0.000000e+00 0.000000e+00  0.000000e+00 0.000000e+00 0.000000e+00  0.000000e+00 0.000000e+00 0.000000e+00  0.000000e+00 0.000000e+00 0.000000e+00  0.000000e+00 0.000000e+00 0.000000e+00  0.000000e+00 0.000000e+00 0.000000e+00  0.000000e+00 0.000000e+00 0.000000e+00  0.000000e+00 0.000000e+00 0.000000e+00  0.000000e+00 0.000000e+00 0.000000e+00  0.000000e+00 0.000000e+00 0.000000e+00  9.739059e-01 3.822832e-02 0.000000e+00  1.542955e+00 2.329838e-01 0.000000e+00  1.226341e+00 8.164655e-02 0.000000e+00  0.000000e+00 0.000000e+00 0.000000e+00  0.000000e+00 0.000000e+00 0.000000e+00  0.000000e+00 0.000000e+00 0.000000e+00  0.000000e+00 0.000000e+00 0.000000e+00  0.000000e+00 0.000000e+00 0.000000e+00  0.000000e+00 0.000000e+00 0.000000e+00  0.000000e+00 0.000000e+00 0.000000e+00  0.000000e+00 0.000000e+00 0.000000e+00  0.000000e+00 0.000000e+00 0.000000e+00  0.000000e+00 0.000000e+00 0.000000e+00  0.000000e+00 0.000000e+00 0.000000e+00  0.000000e+00 0.000000e+00 0.000000e+00  0.000000e+00 0.000000e+00 0.000000e+00  0.000000e+00 0.000000e+00 0.000000e+00  0.000000e+00 0.000000e+00 0.000000e+00  0.000000e+00 0.000000e+00 0.000000e+00  0.000000e+00 0.000000e+00 0.000000e+00  0.000000e+00 0.000000e+00 0.000000e+00  0.000000e+00 0.000000e+00 0.000000e+00  0.000000e+00 0.000000e+00 0.000000e+00  0.000000e+00 0.000000e+00 0.000000e+00  1.125000e+00 0.000000e+00 0.000000e+00  1.500000e+00 0.000000e+00 0.000000e+00  1.125000e+00 0.000000e+00 0.000000e+00  -5.000023e-01 -8.660241e-01 0.000000e+00  -8.660241e-01 -5.000023e-01 0.000000e+00  -8.660241e-01 5.000023e-01 0.000000e+00  -5.000023e-01 8.660241e-01 0.000000e+00  5.000023e-01 8.660241e-01 0.000000e+00  8.660241e-01 5.000023e-01 0.000000e+00  8.660241e-01 -5.000023e-01 0.000000e+00  5.000023e-01 -8.660241e-01 0.000000e+00  4.062975e-01 -4.157024e-01 0.000000e+00  1.758096e+00 -1.314036e-01 0.000000e+00  1.560799e+00 -1.059374e-02 0.000000e+00  1.005674e+00 3.408381e-02 0.000000e+00  1.506838e+00 1.842613e-01 0.000000e+00  1.594568e+00 2.804054e-01 0.000000e+00  1.407252e+00 2.269361e-01 0.000000e+00  1.604351e+00 -8.929013e-03 0.000000e+00  1.510118e+00 -2.534030e-01 0.000000e+00  1.010074e+00 -4.306601e-01 0.000000e+00  1.651511e+00 -2.986522e-01 0.000000e+00  1.705766e+00 7.795755e-01 0.000000e+00  1.538093e+00 2.464433e-01 0.000000e+00  1.402681e+00 1.284307e-01 0.000000e+00  1.621776e+00 -1.689520e-01 0.000000e+00  1.950277e+00 -8.469206e-02 0.000000e+00  1.646392e+00 2.020233e-01 0.000000e+00  1.380480e+00 1.735602e-01 0.000000e+00  9.365074e-01 -2.316113e-03 0.000000e+00  1.286134e+00 9.584867e-02 0.000000e+00  1.218445e+00 -2.271428e-01 0.000000e+00  9.025318e-01 9.444076e-02 0.000000e+00  -2.336107e-01 -9.327647e-02 0.000000e+00  1.261513e+00 1.053709e-01 0.000000e+00  3.108466e-01 1.171681e-01 0.000000e+00  -1.695170e-02 1.193947e-02 0.000000e+00  1.026746e+00 7.247589e-02 0.000000e+00  1.386766e+00 -2.056675e-02 0.000000e+00  9.956033e-01 1.977105e-02 0.000000e+00  1.899251e+00 -3.517514e-01 0.000000e+00  1.241348e+00 -1.566842e-01 0.000000e+00  1.141486e+00 -6.437425e-02 0.000000e+00  1.386792e+00 5.035776e-03 0.000000e+00  9.129205e-01 1.857207e-01 0.000000e+00  1.102749e+00 -8.567463e-02 0.000000e+00  8.842509e-01 -6.608265e-02 0.000000e+00  1.379301e+00 -5.766155e-02 0.000000e+00  1.422007e+00 2.486584e-01 0.000000e+00  1.106886e+00 -4.782365e-02 0.000000e+00  9.995311e-01 -3.461991e-02 0.000000e+00  9.630447e-01 7.323380e-02 0.000000e+00  8.728596e-01 5.542769e-02 0.000000e+00  1.103189e+00 3.021929e-02 0.000000e+00  8.396361e-01 -6.501991e-02 0.000000e+00  1.004370e+00 -9.221651e-02 0.000000e+00  1.023434e+00 -5.922735e-02 0.000000e+00  8.643409e-01 -2.969935e-02 0.000000e+00  1.128584e+00 1.683613e-02 0.000000e+00  9.520527e-01 4.121410e-02 0.000000e+00  1.021787e+00 -8.950952e-02 0.000000e+00  -1.177631e-01 -2.434758e-02 0.000000e+00  8.813892e-01 3.725716e-01 0.000000e+00  1.118625e+00 -1.254102e-01 0.000000e+00  1.516517e+00 -7.755886e-02 0.000000e+00  9.349321e-01 1.117035e-01 0.000000e+00  1.445965e+00 1.088671e-01 0.000000e+00  1.618049e+00 -2.611985e-01 0.000000e+00  1.202622e+00 -2.814657e-01 0.000000e+00  1.513695e+00 9.875698e-02 0.000000e+00  -1.837609e-01 1.520416e-01 0.000000e+00  1.555701e+00 4.322990e-01 0.000000e+00  7.402669e-01 7.211441e-03 0.000000e+00  1.657277e+00 3.203656e-01 0.000000e+00  9.596968e-01 1.658612e-03 0.000000e+00  1.155243e+00 -5.132445e-02 0.000000e+00  7.564475e-01 2.450548e-02 0.000000e+00  1.161381e+00 2.432735e-01 0.000000e+00  9.376235e-01 4.100655e-02 0.000000e+00  1.845684e+00 5.727605e-01 0.000000e+00  1.433798e+00 2.832633e-01 0.000000e+00  1.447501e+00 -3.406073e-01 0.000000e+00  9.984457e-01 -7.989174e-02 0.000000e+00  8.092803e-01 -3.225824e-02 0.000000e+00  1.497233e+00 2.055974e-01 0.000000e+00  1.996492e+00 3.757189e-01 0.000000e+00  1.990134e+00 2.748415e-01 0.000000e+00  2.013032e+00 -1.980273e-01 0.000000e+00  1.776624e+00 -9.901122e-01 0.000000e+00  1.302598e+00 4.480882e-01 0.000000e+00  6.583640e-01 7.923184e-03 0.000000e+00  1.161931e+00 -2.168738e-01 0.000000e+00  1.614430e+00 5.077552e-01 0.000000e+00  6.318088e-01 1.413447e-01 0.000000e+00  7.952325e-01 4.192333e-02 0.000000e+00  1.264866e+00 1.788214e-01 0.000000e+00  1.530271e+00 2.461204e-01 0.000000e+00  1.466557e+00 2.113554e-01 0.000000e+00  5.289598e-01 2.546231e-03 0.000000e+00  5.266277e-01 -1.333362e-02 0.000000e+00  0.000000e+00 0.000000e+00 0.000000e+00  9.252016e-01 -4.216471e-02 0.000000e+00  7.337454e-01 -9.056012e-02 0.000000e+00  0.000000e+00 0.000000e+00 0.000000e+00  5.605185e-01 7.495479e-02 0.000000e+00  4.913222e-01 3.292027e-02 0.000000e+00  0.000000e+00 0.000000e+00 0.000000e+00  1.027346e+00 5.811133e-02 0.000000e+00  6.562500e-01 0.000000e+00 0.000000e+00  1.857456e+00 8.817161e-02 0.000000e+00  1.256762e+00 2.105758e-02 0.000000e+00  1.409731e+00 -3.260413e-02 0.000000e+00  1.161291e+00 1.341220e-01 0.000000e+00  1.274418e+00 6.200049e-02 0.000000e+00  7.196844e-01 -7.066048e-02 0.000000e+00  -1.844551e-02 -2.868865e-01 0.000000e+00  1.399890e+00 -2.537995e-01 0.000000e+00  1.998417e+00 3.249130e-01 0.000000e+00  1.508825e+00 3.052182e-02 0.000000e+00  1.215298e+00 4.079542e-02 0.000000e+00  1.507843e+00 -1.469216e-01 0.000000e+00  1.581804e+00 1.071437e-02 0.000000e+00  1.007307e+00 -4.897787e-02 0.000000e+00  6.094679e-01 -2.613330e-02 0.000000e+00  1.372551e+00 -1.638825e-01 0.000000e+00  1.379246e+00 -5.769304e-02 0.000000e+00  1.695412e-02 1.534589e-01 0.000000e+00  1.043796e+00 3.940229e-01 0.000000e+00  5.569514e-01 7.102936e-01 0.000000e+00  1.524734e+00 2.005500e-01 0.000000e+00  1.213015e+00 1.017781e-01 0.000000e+00  1.325723e+00 1.415747e-01 0.000000e+00  1.331169e+00 -1.253698e-01 0.000000e+00  1.509048e+00 -8.555538e-02 0.000000e+00  1.200931e+00 2.200138e-02 0.000000e+00  1.611220e+00 -1.082498e-01 0.000000e+00  1.585803e+00 1.134948e-01 0.000000e+00  1.152316e+00 -4.137051e-02 0.000000e+00  7.996568e-01 -3.589831e-01 0.000000e+00  1.219927e+00 -1.537643e-01 0.000000e+00  1.738930e+00 -1.953982e-01 0.000000e+00  1.482943e+00 -2.545330e-01 0.000000e+00  8.722677e-01 7.991478e-01 0.000000e+00  6.488732e-01 5.606325e-01 0.000000e+00  -7.071068e-01 -7.071068e-01 0.000000e+00  -3.120504e-03 1.796641e-01 0.000000e+00  -5.946447e-02 2.101512e-01 0.000000e+00  2.588197e-01 9.659256e-01 0.000000e+00  -3.928422e-02 6.991123e-02 0.000000e+00  8.318912e-01 -5.478972e-02 0.000000e+00  1.293012e+00 -1.298501e-01 0.000000e+00  1.447567e+00 3.265677e-02 0.000000e+00  1.413675e+00 -3.274181e-03 0.000000e+00  1.583104e+00 -7.876420e-02 0.000000e+00  1.611859e+00 1.248639e-01 0.000000e+00  1.009842e+00 1.696591e-02 0.000000e+00  1.211773e+00 1.109310e-01 0.000000e+00  3.626134e-01 -1.485097e-02 0.000000e+00  3.301362e-01 -1.446959e-02 0.000000e+00  0.000000e+00 0.000000e+00 0.000000e+00  1.186917e+00 4.129742e-02 0.000000e+00  9.507671e-01 -2.135705e-02 0.000000e+00  1.310848e+00 2.024528e-01 0.000000e+00  8.580903e-01 -2.643791e-02 0.000000e+00  1.444694e+00 1.164353e-01 0.000000e+00  3.565094e-01 1.206135e-03 0.000000e+00  4.201459e-01 9.658000e-03 0.000000e+00  4.312644e-01 1.782670e-02 0.000000e+00  0.000000e+00 0.000000e+00 0.000000e+00  1.144150e+00 1.446284e-01 0.000000e+00  1.430680e+00 2.770962e-01 0.000000e+00  8.474831e-01 3.710529e-02 0.000000e+00  1.087345e+00 5.054268e-02 0.000000e+00  4.758249e-01 -1.122819e-02 0.000000e+00  3.687267e-01 1.031311e-02 0.000000e+00  0.000000e+00 0.000000e+00 0.000000e+00  1.607319e+00 1.599473e-01 0.000000e+00  1.696641e+00 2.039475e-01 0.000000e+00  1.052463e+00 6.787843e-02 0.000000e+00  1.531324e+00 9.254331e-02 0.000000e+00  3.881537e-01 -1.728035e-04 0.000000e+00  5.057105e-01 -2.441980e-02 0.000000e+00  0.000000e+00 0.000000e+00 0.000000e+00  1.129844e+00 -1.076628e-01 0.000000e+00  1.421828e+00 -6.629034e-04 0.000000e+00  9.151540e-01 -8.401464e-02 0.000000e+00  1.260027e+00 -2.012385e-01 0.000000e+00  5.531276e-01 -2.584163e-02 0.000000e+00  1.505097e+00 -2.446179e-01 0.000000e+00  1.600389e+00 -2.855365e-01 0.000000e+00  8.289456e-01 8.185356e-03 0.000000e+00  8.047441e-01 -1.760313e-02 0.000000e+00  0.000000e+00 0.000000e+00 0.000000e+00  1.492058e+00 2.391316e-01 0.000000e+00  1.490808e+00 2.763955e-01 0.000000e+00  5.839601e-01 2.727840e-02 0.000000e+00  6.241531e-01 2.191353e-02 0.000000e+00  0.000000e+00 0.000000e+00 0.000000e+00  1.212510e+00 5.687602e-02 0.000000e+00  1.300716e+00 2.355384e-01 0.000000e+00  6.398249e-01 -1.172301e-02 0.000000e+00  6.486000e-01 1.563469e-02 0.000000e+00  0.000000e+00 0.000000e+00 0.000000e+00  9.800960e-01 7.155239e-02 0.000000e+00  1.290905e+00 1.544243e-01 0.000000e+00  1.383853e+00 -1.229953e-01 0.000000e+00  1.615630e+00 -1.938338e-02 0.000000e+00  1.149056e+00 -1.735808e-01 0.000000e+00  9.753584e-01 -7.700020e-02 0.000000e+00  0.000000e+00 0.000000e+00 0.000000e+00  1.527920e+00 8.308907e-02 0.000000e+00  1.593433e+00 -4.050216e-01 0.000000e+00  7.618693e-01 -4.106953e-02 0.000000e+00  6.950154e-01 -4.162468e-02 0.000000e+00  0.000000e+00 0.000000e+00 0.000000e+00  1.070872e+00 -8.716776e-02 0.000000e+00  1.509911e+00 -2.912706e-01 0.000000e+00  1.624349e+00 -2.913880e-01 0.000000e+00  1.590503e+00 -3.693724e-01 0.000000e+00  8.868091e-01 4.623307e-02 0.000000e+00  9.744639e-01 8.468588e-02 0.000000e+00  0.000000e+00 0.000000e+00 0.000000e+00  1.603464e+00 -2.611692e-01 0.000000e+00  1.531887e+00 -5.307514e-01 0.000000e+00  1.490819e+00 -3.399820e-01 0.000000e+00  1.361815e+00 -2.690119e-01 0.000000e+00  8.106331e-01 5.982463e-03 0.000000e+00  7.871894e-01 -2.265610e-02 0.000000e+00  0.000000e+00 0.000000e+00 0.000000e+00  1.366943e+00 -1.151079e-01 0.000000e+00  1.696546e+00 -8.417726e-02 0.000000e+00  1.675980e+00 1.504442e-01 0.000000e+00  1.123540e+00 3.889337e-02 0.000000e+00  1.180026e+00 -1.973597e-02 0.000000e+00  0.000000e+00 0.000000e+00 0.000000e+00  8.452609e-01 8.829912e-02 0.000000e+00  1.517286e+00 5.737340e-02 0.000000e+00  1.607416e+00 3.128093e-01 0.000000e+00  8.497002e-01 -2.381958e-02 0.000000e+00  8.076275e-01 1.050063e-02 0.000000e+00  0.000000e+00 0.000000e+00 0.000000e+00  1.199445e+00 6.355206e-02 0.000000e+00  3.881035e-01 -2.734498e-02 0.000000e+00  0.000000e+00 0.000000e+00 0.000000e+00  1.372377e+00 -4.433513e-02 0.000000e+00  1.109383e+00 -5.868126e-02 0.000000e+00  4.022763e-01 -3.344584e-02 0.000000e+00  5.895126e-01 -1.516896e-02 0.000000e+00  0.000000e+00 0.000000e+00 0.000000e+00  1.399902e+00 -1.915757e-01 0.000000e+00  1.085116e+00 -4.319048e-02 0.000000e+00  1.494874e+00 -6.627900e-02 0.000000e+00  6.079681e-01 4.021980e-03 0.000000e+00  5.900552e-01 1.949688e-02 0.000000e+00  0.000000e+00 0.000000e+00 0.000000e+00  1.510578e+00 1.276440e-01 0.000000e+00  1.042412e+00 8.121653e-02 0.000000e+00  1.404449e+00 1.978856e-01 0.000000e+00  5.569618e-01 2.057710e-02 0.000000e+00  5.378893e-01 7.398011e-03 0.000000e+00  0.000000e+00 0.000000e+00 0.000000e+00  1.198103e+00 1.133322e-01 0.000000e+00  9.618015e-01 3.653874e-02 0.000000e+00  6.058368e-01 -1.234532e-02 0.000000e+00  8.287612e-01 -3.036280e-02 0.000000e+00  7.860961e-01 -3.915709e-02 0.000000e+00  0.000000e+00 0.000000e+00 0.000000e+00  1.560944e+00 2.964830e-01 0.000000e+00  1.435876e+00 1.805531e-01 0.000000e+00  1.570286e+00 3.141027e-01 0.000000e+00  1.457513e+00 1.428574e-01 0.000000e+00  5.695181e-01 -2.430752e-02 0.000000e+00  0.000000e+00 0.000000e+00 0.000000e+00  1.000118e+00 -8.895247e-02 0.000000e+00  1.357198e+00 -1.999294e-01 0.000000e+00  1.303296e+00 -4.180044e-02 0.000000e+00  1.244072e+00 -3.065513e-02 0.000000e+00  0.000000e+00 0.000000e+00 0.000000e+00  1.525581e+00 -6.513690e-02 0.000000e+00  1.496300e+00 -1.596454e-01 0.000000e+00  0.000000e+00 0.000000e+00 0.000000e+00  1.710185e+00 -2.351493e-01 0.000000e+00  1.121562e+00 7.159951e-01 0.000000e+00  1.357542e+00 5.479897e-01 0.000000e+00  1.245359e+00 -1.533789e-02 0.000000e+00  0.000000e+00 0.000000e+00 0.000000e+00  1.519462e+00 1.126817e-01 0.000000e+00  1.070225e+00 -2.789209e-01 0.000000e+00  -1.184190e-01 -3.875911e-01 0.000000e+00  8.794823e-01 -9.284234e-02 0.000000e+00  1.285425e+00 -1.752592e-02 0.000000e+00  1.200845e+00 1.936500e-01 0.000000e+00  1.106959e+00 9.310632e-02 0.000000e+00  0.000000e+00 0.000000e+00 0.000000e+00  1.040344e+00 8.539083e-02 0.000000e+00  1.141325e+00 1.281452e-02 0.000000e+00  0.000000e+00 0.000000e+00 0.000000e+00  -1.427508e-01 2.107757e-01 0.000000e+00  -2.323725e-01 4.463013e-01 0.000000e+00  -1.968336e-01 2.703503e-01 0.000000e+00  -2.353427e-01 3.543690e-02 0.000000e+00  9.782910e-01 2.312448e-02 0.000000e+00  9.195248e-01 1.630798e-03 0.000000e+00  8.120877e-01 -3.204295e-02 0.000000e+00  1.648838e+00 3.788013e-01 0.000000e+00  1.474727e+00 2.522690e-01 0.000000e+00  1.510897e+00 1.911134e-01 0.000000e+00  1.397366e+00 3.280630e-01 0.000000e+00  6.082016e-01 -1.848773e-02 0.000000e+00  6.062572e-01 9.007372e-03 0.000000e+00  0.000000e+00 0.000000e+00 0.000000e+00  6.830219e-01 -8.548328e-03 0.000000e+00  6.940394e-01 4.649369e-06 0.000000e+00  0.000000e+00 0.000000e+00 0.000000e+00  1.343853e+00 -4.426275e-02 0.000000e+00  4.341698e-01 7.851937e-03 0.000000e+00  4.143476e-01 1.115409e-03 0.000000e+00  0.000000e+00 0.000000e+00 0.000000e+00  8.800348e-01 3.527127e-02 0.000000e+00  5.791907e-01 -2.546482e-03 0.000000e+00  8.565670e-01 1.780924e-02 0.000000e+00  1.239779e+00 2.459063e-01 0.000000e+00  1.043923e+00 5.352461e-02 0.000000e+00  1.473430e+00 4.907193e-01 0.000000e+00  5.027732e-01 1.567026e-02 0.000000e+00  5.423444e-01 1.516447e-02 0.000000e+00  0.000000e+00 0.000000e+00 0.000000e+00  1.196110e+00 1.121648e-01 0.000000e+00  1.163996e+00 4.273631e-02 0.000000e+00  1.717622e+00 1.300685e-01 0.000000e+00  1.672848e+00 4.360822e-03 0.000000e+00  9.637068e-01 3.115789e-02 0.000000e+00  1.109394e+00 1.114759e-01 0.000000e+00  1.126419e+00 6.168692e-02 0.000000e+00  1.226203e+00 3.355231e-02 0.000000e+00  -1.074188e-01 5.374327e-02 0.000000e+00  -1.364616e-01 3.996008e-01 0.000000e+00  -2.588197e-01 9.659256e-01 0.000000e+00  -2.071424e-01 -4.943048e-02 0.000000e+00  1.609739e+00 1.660948e-01 0.000000e+00  1.578637e+00 6.866858e-03 0.000000e+00  3.010664e-01 5.305858e-03 0.000000e+00  3.029253e-01 -1.790737e-03 0.000000e+00  0.000000e+00 0.000000e+00 0.000000e+00  1.684231e+00 -1.040884e-01 0.000000e+00  1.199499e+00 -1.005740e-01 0.000000e+00  1.622675e+00 -2.591620e-01 0.000000e+00  4.049544e-01 -1.217532e-02 0.000000e+00  0.000000e+00 0.000000e+00 0.000000e+00  4.945196e-01 5.378470e-02 0.000000e+00  1.136209e+00 3.828627e-02 0.000000e+00  9.729129e-01 -5.644591e-02 0.000000e+00  1.284128e+00 -1.726922e-01 0.000000e+00  1.189430e+00 2.440653e-01 0.000000e+00  1.810591e+00 3.437099e-01 0.000000e+00  1.555604e+00 2.728038e-01 0.000000e+00  1.041286e+00 1.170372e-01 0.000000e+00  1.637735e+00 -3.893029e-01 0.000000e+00  1.663849e+00 -2.855405e-01 0.000000e+00  1.591230e+00 -3.467917e-01 0.000000e+00  1.611774e+00 4.101129e-01 0.000000e+00  4.399230e-01 1.516306e-01 0.000000e+00  -8.780303e-02 2.323706e-01 0.000000e+00  -7.071068e-01 7.071068e-01 0.000000e+00  1.358682e+00 3.804320e-01 0.000000e+00  1.738746e+00 6.058667e-01 0.000000e+00  5.819893e-01 -2.550493e-02 0.000000e+00  5.513135e-01 -1.850730e-02 0.000000e+00  0.000000e+00 0.000000e+00 0.000000e+00  1.076755e+00 -8.799923e-02 0.000000e+00  7.121106e-01 -1.481721e-02 0.000000e+00  1.265032e+00 -7.785192e-02 0.000000e+00  1.491234e+00 -1.938822e-01 0.000000e+00  1.364943e+00 -1.377837e-01 0.000000e+00  1.108460e+00 -2.079432e-01 0.000000e+00  3.715432e-01 -2.206308e-02 0.000000e+00  3.462547e-01 -6.593790e-03 0.000000e+00  0.000000e+00 0.000000e+00 0.000000e+00  7.712508e-01 1.336913e-02 0.000000e+00  1.021112e+00 5.641071e-03 0.000000e+00  1.132949e+00 -8.665107e-02 0.000000e+00  9.498210e-01 -8.581846e-02 0.000000e+00  1.536568e+00 1.777141e-01 0.000000e+00  1.018394e+00 1.109485e-01 0.000000e+00  7.748266e-01 1.201998e-01 0.000000e+00  0.000000e+00 0.000000e+00 0.000000e+00  1.549372e+00 3.087912e-01 0.000000e+00  8.561289e-01 1.841228e-01 0.000000e+00  1.748713e+00 2.378383e-01 0.000000e+00  1.823758e+00 2.108822e-01 0.000000e+00  1.967855e+00 3.133851e-01 0.000000e+00  1.887272e+00 2.181961e-01 0.000000e+00  2.270664e+00 8.918310e-02 0.000000e+00  2.567159e+00 -8.973744e-02 0.000000e+00  1.469370e+00 5.235530e-01 0.000000e+00  4.561653e-01 1.214747e-02 0.000000e+00  0.000000e+00 0.000000e+00 0.000000e+00  5.786426e-01 -9.468711e-03 0.000000e+00  1.815620e+00 -1.621569e-02 0.000000e+00  5.459035e-01 -3.769015e-02 0.000000e+00  0.000000e+00 0.000000e+00 0.000000e+00  1.185629e+00 -1.066524e-02 0.000000e+00  1.634059e+00 -3.263518e-01 0.000000e+00  1.462956e+00 5.180687e-03 0.000000e+00  1.406250e+00 0.000000e+00 0.000000e+00  5.029141e-01 1.426557e-01 0.000000e+00  5.763389e-01 1.901021e-01 0.000000e+00  7.071068e-01 7.071068e-01 0.000000e+00  9.561634e-01 2.212987e-01 0.000000e+00  9.473523e-01 -6.408459e-01 0.000000e+00  8.659293e-01 -4.248541e-01 0.000000e+00  2.588197e-01 -9.659256e-01 0.000000e+00  1.279371e+00 -8.228266e-01 0.000000e+00  1.520699e+00 -1.397176e+00 0.000000e+00  1.469511e+00 -1.211413e-01 0.000000e+00  1.187607e+00 5.394203e-01 0.000000e+00  1.220882e+00 2.737093e-01 0.000000e+00  2.163673e-01 -7.433787e-02 0.000000e+00  -1.284360e-01 -2.193034e-01 0.000000e+00  1.424119e+00 2.220110e-01 0.000000e+00  7.784831e-01 -1.373619e-01 0.000000e+00  6.693523e-01 -6.516037e-02 0.000000e+00  0.000000e+00 0.000000e+00 0.000000e+00  1.111398e+00 -9.829214e-02 0.000000e+00  6.562500e-01 0.000000e+00 0.000000e+00  7.199633e-01 3.172415e-02 0.000000e+00  1.704071e+00 6.972178e-01 0.000000e+00  1.914720e+00 5.162949e-01 0.000000e+00  1.065074e+00 2.167285e-01 0.000000e+00  -3.243380e-01 -4.805662e-01 0.000000e+00  1.169908e+00 -2.481462e-01 0.000000e+00  1.396099e+00 -1.163106e-01 0.000000e+00  1.406250e+00 0.000000e+00 0.000000e+00  1.404068e+00 -5.217084e-01 0.000000e+00  1.558002e+00 -4.151684e-01 0.000000e+00  1.334401e+00 -3.600522e-01 0.000000e+00  2.028352e+00 -1.297606e+00 0.000000e+00  7.071068e-01 -7.071068e-01 0.000000e+00  1.990233e+00 2.987981e-01 0.000000e+00  1.543484e-01 -4.608463e-01 0.000000e+00  1.232461e