<?xml version="1.0"?>
<VTKFile type="UnstructuredGrid"  version="0.1"  >
<UnstructuredGrid>
<Piece  NumberOfPoints="525" NumberOfCells="924">
<Points>
<DataArray  type="Float32"  NumberOfComponents="3"  format="ascii">0 0 0  2.2 0 0  2.2 0.41 0  0 0.41 0  0.15 0.2 0  0.25 0.2 0  0.2 0.15 0  0.2 0.25 0  0.104762 0 0  0.209524 0 0  0.314286 0 0  0.419048 0 0  0.52381 0 0  0.628571 0 0  0.733333 0 0  0.838095 0 0  0.942857 0 0  1.04762 0 0  1.15238 0 0  1.25714 0 0  1.3619 0 0  1.46667 0 0  1.57143 0 0  1.67619 0 0  1.78095 0 0  1.88571 0 0  1.99048 0 0  2.09524 0 0  2.2 0.1025 0  2.2 0.205 0  2.2 0.3075 0  2.1 0.41 0  2 0.41 0  1.9 0.41 0  1.8 0.41 0  1.7 0.41 0  1.6 0.41 0  1.5 0.41 0  1.4 0.41 0  1.3 0.41 0  1.2 0.41 0  1.1 0.41 0  1 0.41 0  0.9 0.41 0  0.8 0.41 0  0.7 0.41 0  0.6 0.41 0  0.5 0.41 0  0.4 0.41 0  0.3 0.41 0  0.2 0.41 0  0.1 0.41 0  0 0.3075 0  0 0.205 0  0 0.1025 0  0.156699 0.225 0  0.175 0.243301 0  0.225 0.243301 0  0.243301 0.225 0  0.243301 0.175 0  0.225 0.156699 0  0.175 0.156699 0  0.156699 0.175 0  0.352033 0.262216 0  1.04579 0.252253 0  1.24065 0.243419 0  0.985775 0.171509 0  1.30324 0.187395 0  0.890988 0.190768 0  1.39085 0.202767 0  0.801464 0.204685 0  1.49904 0.204666 0  0.704267 0.202289 0  1.60238 0.204951 0  0.487789 0.19191 0  1.72935 0.219637 0  1.83335 0.187427 0  2.03359 0.193642 0  0.314663 0.307348 0  0.249039 0.333583 0  2.12147 0.253405 0  2.06373 0.0836837 0  0.0734726 0.267055 0  0.143989 0.0677174 0  0.0613613 0.33781 0  0.299628 0.236829 0  0.527114 0.295386 0  0.262384 0.26549 0  0.275777 0.18341 0  1.74578 0.330928 0  1.84001 0.302448 0  1.64998 0.313838 0  0.648421 0.302367 0  1.54544 0.308508 0  0.755686 0.306156 0  1.42668 0.314809 0  0.870524 0.298596 0  1.22553 0.112785 0  1.05603 0.147372 0  0.969346 0.329867 0  1.32527 0.276284 0  2.02914 0.29511 0  1.88168 0.119486 0  1.79545 0.104842 0  1.35688 0.0892539 0  1.69041 0.105324 0  0.914199 0.0955566 0  1.58234 0.102923 0  0.61843 0.10815 0  1.47999 0.101161 0  0.725217 0.104273 0  0.821727 0.102306 0  1.96725 0.105778 0  0.418624 0.241547 0  0.135226 0.239087 0  1.14921 0.314841 0  0.404508 0.333259 0  0.590155 0.206269 0  2.12554 0.150731 0  1.93166 0.22436 0  0.104689 0.190046 0  0.267856 0.0744753 0  0.269368 0.221581 0  0.434446 0.114927 0  1.0089 0.0793381 0  0.953023 0.246698 0  1.25853 0.33355 0  1.05268 0.340828 0  2.1369 0.067383 0  0.522398 0.112537 0  1.3421 0.348929 0  0.215186 0.289473 0  0.203197 0.335348 0  1.13984 0.190728 0  1.93813 0.330504 0  1.10505 0.0883705 0  0.341988 0.0824728 0  0.253113 0.138035 0  0.291932 0.131907 0  0.203713 0.102439 0  0.150375 0.134668 0  0.151494 0.309119 0  0.354384 0.17896 0  0.0685367 0.100776 0  0.424128 0.180088 0  0.474925 0.0568661 0  2.10843 0.347669 0  2.16073 0.280452 0  2.16073 0.229202 0  2.2 0.25625 0  2.07949 0.0418418 0  2.02711 0.0418418 0  2.04286 0 0  0.176756 0.0338587 0  0.124375 0.0338587 0  0.157143 0 0  0.0806807 0.373905 0  0.0306807 0.373905 0  0.05 0.41 0  0.0306807 0.322655 0  0 0.35875 0  0.281851 0.320466 0  0.27452 0.371791 0  0.307331 0.358674 0  0.067417 0.302432 0  0.0367363 0.287277 0  0.307146 0.272089 0  0.325831 0.249523 0  0.333348 0.284782 0  0.255711 0.299536 0  0.288524 0.286419 0  2.07531 0.274257 0  2.03137 0.244376 0  2.07753 0.223523 0  2.01549 0.0947309 0  1.97886 0.052889 0  2.00042 0.14971 0  2.04866 0.138663 0  0.472869 0.268466 0  0.453206 0.216728 0  0.507451 0.243648 0  2.16277 0.177866 0  2.16277 0.126615 0  2.2 0.15375 0  1.90667 0.171923 0  1.88251 0.205894 0  1.85752 0.153456 0  1.88583 0.263404 0  1.83668 0.244938 0  0.604293 0.15721 0  0.647211 0.204279 0  0.661349 0.15522 0  0.359586 0.320304 0  0.37827 0.297737 0  0.155113 0.241194 0  0.145962 0.232044 0  0.164645 0.235355 0  0.259539 0.179205 0  0.262888 0.191705 0  0.248296 0.187059 0  0.281006 0.251159 0  1.0209 0.15944 0  1.05091 0.199813 0  1.01578 0.211881 0  1.26438 0.15009 0  1.23309 0.178102 0  1.27195 0.215407 0  1.29121 0.101019 0  1.33006 0.138324 0  0.928528 0.0477783 0  0.876147 0.0477783 0  0.890476 0 0  0.902594 0.143162 0  0.949987 0.133533 0  0.938381 0.181138 0  0.867963 0.0989313 0  0.856357 0.146537 0  0.829911 0.051153 0  1.41178 0.0446269 0  1.35939 0.0446269 0  1.41429 0 0  1.37386 0.14601 0  1.34705 0.195081 0  1.41844 0.0952074 0  1.43542 0.151964 0  1.47333 0.0505805 0  0.77753 0.051153 0  0.785714 0 0  0.811595 0.153496 0  0.846226 0.197726 0  0.773472 0.10329 0  0.76334 0.154479 0  0.729275 0.0521365 0  1.52571 0.0505805 0  1.51905 0 0  1.48951 0.152913 0  1.44494 0.203716 0  1.53117 0.102042 0  1.54069 0.153795 0  1.57689 0.0514615 0  1.9804 0.259735 0  1.98262 0.209001 0  1.82001 0.356224 0  1.87 0.356224 0  1.85 0.41 0  1.78468 0.261043 0  1.78135 0.203532 0  1.72289 0.370464 0  1.77289 0.370464 0  1.75 0.41 0  1.7929 0.316688 0  1.73757 0.275282 0  1.62499 0.361919 0  1.67499 0.361919 0  1.65 0.41 0  1.69788 0.322383 0  1.68966 0.266738 0  1.62618 0.259394 0  1.66586 0.212294 0  0.624211 0.356183 0  0.674211 0.356183 0  0.65 0.41 0  0.619288 0.254318 0  0.676344 0.252328 0  1.52272 0.359254 0  1.57272 0.359254 0  1.55 0.41 0  1.59771 0.311173 0  1.57391 0.256729 0  1.52224 0.256587 0  1.55071 0.204809 0  0.727843 0.358078 0  0.777843 0.358078 0  0.75 0.41 0  0.702053 0.304261 0  0.729977 0.254223 0  0.778575 0.25542 0  0.752865 0.203487 0  1.41334 0.362405 0  1.46334 0.362405 0  1.45 0.41 0  1.48606 0.311659 0  1.46286 0.259738 0  1.40876 0.258788 0  0.835262 0.354298 0  0.885262 0.354298 0  0.85 0.41 0  0.813105 0.302376 0  0.835994 0.25164 0  0.880756 0.244682 0  0.934673 0.369934 0  0.984673 0.369934 0  0.95 0.41 0  0.919935 0.314231 0  0.676894 0.0521365 0  0.680952 0 0  0.714742 0.153281 0  0.671824 0.106212 0  0.623501 0.054075 0  1.62927 0.0514615 0  1.62381 0 0  1.59236 0.153937 0  1.63638 0.104124 0  1.6464 0.155137 0  1.6833 0.052662 0  1.73568 0.052662 0  1.72857 0 0  1.70988 0.16248 0  1.74293 0.105083 0  1.7624 0.16224 0  1.7882 0.052421 0  1.84058 0.052421 0  1.83333 0 0  1.8144 0.146135 0  1.83857 0.112164 0  1.88369 0.059743 0  1.12461 0.36242 0  1.17461 0.36242 0  1.15 0.41 0  1.31425 0.231839 0  1.28296 0.259852 0  1.35806 0.239526 0  1.37597 0.295546 0  1.92648 0.052889 0  1.9381 0 0  1.92447 0.112632 0  1.94945 0.165069 0  0.352254 0.37163 0  0.402254 0.37163 0  0.35 0.41 0  0.513557 0.352693 0  0.563557 0.352693 0  0.55 0.41 0  0.587767 0.298876 0  0.558634 0.250827 0  0.538972 0.19909 0  0.452254 0.37163 0  0.45 0.41 0  0.465811 0.314323 0  0.411566 0.287403 0  0.385328 0.251881 0  0.119958 0.214566 0  0.0890808 0.22855 0  0.104349 0.253071 0  0.22452 0.371791 0  0.25 0.41 0  0.291071 0.0372376 0  0.23869 0.0372376 0  0.261905 0 0  0.265876 0.243536 0  0.256335 0.223291 0  0.252842 0.245245 0  0.284498 0.229205 0  1.03246 0.113355 0  0.997337 0.125424 0  0.961549 0.0874474 0  0.922006 0.218733 0  0.969399 0.209103 0  0.961184 0.288282 0  0.911774 0.272647 0  1.22926 0.371775 0  1.27927 0.371775 0  1.25 0.41 0  1.02634 0.375414 0  1.07634 0.375414 0  1.05 0.41 0  1.01101 0.335348 0  2.11607 0.0336915 0  2.16845 0.0336915 0  2.14762 0 0  2.16845 0.0849415 0  2.2 0.05125 0  2.10032 0.0755333 0  0.556277 0.159403 0  0.570414 0.110343 0  0.505093 0.152224 0  1.32105 0.379464 0  1.37105 0.379464 0  1.35 0.41 0  1.33369 0.312607 0  1.38439 0.331869 0  0.999406 0.249476 0  1.00757 0.29106 0  1.30031 0.34124 0  1.2919 0.304917 0  2.13122 0.109057 0  2.09464 0.117207 0  0.272572 0.202495 0  0.259684 0.21079 0  0.248296 0.212941 0  0.287702 0.21012 0  2.1235 0.202068 0  2.07956 0.172187 0  1.02826 0.039669 0  0.975878 0.039669 0  0.995238 0 0  1.04923 0.29654 0  1.10095 0.327835 0  1.0975 0.283547 0  0.57112 0.054075 0  0.576191 0 0  0.523104 0.0562685 0  1.24959 0.288485 0  1.20387 0.324195 0  1.19493 0.27913 0  0.238785 0.277481 0  0.232112 0.311528 0  0.226118 0.334465 0  0.201599 0.372674 0  1.14453 0.252784 0  1.19024 0.217074 0  1.09281 0.221491 0  0.209191 0.31241 0  0.220093 0.266387 0  0.243692 0.254395 0  0.235355 0.235355 0  0.478422 0.113732 0  0.461117 0.153419 0  1.91906 0.370252 0  1.96907 0.370252 0  1.95 0.41 0  1.98364 0.312807 0  2.01457 0.352555 0  1.88907 0.316476 0  1.9349 0.277432 0  1.18268 0.151757 0  1.09794 0.16905 0  1.12872 0.0441853 0  1.07634 0.0441853 0  1.1 0 0  1.05697 0.0838543 0  1.08054 0.117871 0  1.12244 0.139549 0  1.16529 0.100578 0  0.304922 0.078474 0  0.328137 0.0412364 0  0.380518 0.0412364 0  0.366667 0 0  0.388217 0.0986999 0  0.426747 0.0574635 0  0.31696 0.10719 0  0.279894 0.103191 0  0.272523 0.134971 0  0.260485 0.106255 0  0.228413 0.120237 0  0.214357 0.129569 0  0.239057 0.147367 0  1.30701 0.0446269 0  1.30952 0 0  1.24133 0.0563925 0  0.235785 0.0884571 0  1.18895 0.0563925 0  1.20476 0 0  0.206618 0.0512195 0  0.173851 0.0850782 0  0.0367363 0.236028 0  0 0.25625 0  0.264445 0.160722 0  0.248207 0.156517 0  0.235355 0.164645 0  0.283855 0.157658 0  0.130694 0.182523 0  0.127344 0.195023 0  0.151704 0.187059 0  0.127532 0.162357 0  0.153537 0.154834 0  0.0523445 0.197523 0  0.14336 0.274103 0  0.112483 0.288087 0  0.31508 0.181185 0  0.327006 0.207895 0  0.323158 0.155434 0  0.0866493 0.050388 0  0.0342684 0.050388 0  0.052381 0 0  0.0342684 0.101638 0  0 0.05125 0  0.421376 0.210817 0  0.455958 0.185999 0  0.429287 0.147508 0  0.106428 0.323464 0  0.353208 0.220588 0  0.106263 0.0842467 0  0.0342684 0.152888 0  0 0.15375 0  0.109456 0.117722 0  0.147182 0.101193 0  0.0866129 0.145411 0  0.162687 0.145684 0  0.164645 0.164645 0  0.348186 0.130716 0  0.386504 0.210254 0  0.389256 0.179524 0  0.394415 0.146944 0  0.125747 0.359559 0  0.175747 0.359559 0  0.15 0.41 0  0.177345 0.322233 0  0.142613 0.219544 0  0.151704 0.212941 0  0.499367 0.0284331 0  0.446986 0.0284331 0  0.471429 0 0  0.498661 0.0847016 0  0.454685 0.0858966 0  0.201856 0.126219 0  0.212941 0.151704 0  0.18334 0.299296 0  0.175187 0.142334 0  0.187059 0.151704 0  0.177044 0.118554 0  2.15421 0.327585 0  2.15421 0.378834 0  2.2 0.35875 0  2.10421 0.378834 0  2.15 0.41 0  2.05422 0.378
[...]
<PointData  Vectors="u"> 
<DataArray  type="Float32"  Name="u"  NumberOfComponents="3" format="ascii">0.000000e+00 0.000000e+00 0.000000e+00  0.000000e+00 0.000000e+00 0.000000e+00  0.000000e+00 0.000000e+00 0.000000e+00  0.000000e+00 0.000000e+00 0.000000e+00  0.000000e+00 -1.000000e+00 0.000000e+00  0.000000e+00 1.000000e+00 0.000000e+00  1.000000e+00 0.000000e+00 0.000000e+00  -1.000000e+00 0.000000e+00 0.000000e+00  0.000000e+00 0.000000e+00 0.000000e+00  0.000000e+00 0.000000e+00 0.000000e+00  0.000000e+00 0.000000e+00 0.000000e+00  0.000000e+00 0.000000e+00 0.000000e+00  0.000000e+00 0.000000e+00 0.000000e+00  0.000000e+00 0.000000e+00 0.000000e+00  0.000000e+00 0.000000e+00 0.000000e+00  0.000000e+00 0.000000e+00 0.000000e+00  0.000000e+00 0.000000e+00 0.000000e+00  0.000000e+00 0.000000e+00 0.000000e+00  0.000000e+00 0.000000e+00 0.000000e+00  0.000000e+00 0.000000e+00 0.000000e+00  0.000000e+00 0.000000e+00 0.000000e+00  0.000000e+00 0.000000e+00 0.000000e+00  0.000000e+00 0.000000e+00 0.000000e+00  0.000000e+00 0.000000e+00 0.000000e+00  0.000000e+00 0.000000e+00 0.000000e+00  0.000000e+00 0.000000e+00 0.000000e+00  0.000000e+00 0.000000e+00 0.000000e+00  0.000000e+00 0.000000e+00 0.000000e+00  1.071418e+00 -4.698568e-02 0.000000e+00  1.527951e+00 -1.036578e-01 0.000000e+00  1.124873e+00 -2.189504e-02 0.000000e+00  0.000000e+00 0.000000e+00 0.000000e+00  0.000000e+00 0.000000e+00 0.000000e+00  0.000000e+00 0.000000e+00 0.000000e+00  0.000000e+00 0.000000e+00 0.000000e+00  0.000000e+00 0.000000e+00 0.000000e+00  0.000000e+00 0.000000e+00 0.000000e+00  0.000000e+00 0.000000e+00 0.000000e+00  0.000000e+00 0.000000e+00 0.000000e+00  0.000000e+00 0.000000e+00 0.000000e+00  0.000000e+00 0.000000e+00 0.000000e+00  0.000000e+00 0.000000e+00 0.000000e+00  0.000000e+00 0.000000e+00 0.000000e+00  0.000000e+00 0.000000e+00 0.000000e+00  0.000000e+00 0.000000e+00 0.000000e+00  0.000000e+00 0.000000e+00 0.000000e+00  0.000000e+00 0.000000e+00 0.000000e+00  0.000000e+00 0.000000e+00 0.000000e+00  0.000000e+00 0.000000e+00 0.000000e+00  0.000000e+00 0.000000e+00 0.000000e+00  0.000000e+00 0.000000e+00 0.000000e+00  0.000000e+00 0.000000e+00 0.000000e+00  1.125000e+00 0.000000e+00 0.000000e+00  1.500000e+00 0.000000e+00 0.000000e+00  1.125000e+00 0.000000e+00 0.000000e+00  -5.000023e-01 -8.660241e-01 0.000000e+00  -8.660241e-01 -5.000023e-01 0.000000e+00  -8.660241e-01 5.000023e-01 0.000000e+00  -5.000023e-01 8.660241e-01 0.000000e+00  5.000023e-01 8.660241e-01 0.000000e+00  8.660241e-01 5.000023e-01 0.000000e+00  8.660241e-01 -5.000023e-01 0.000000e+00  5.000023e-01 -8.660241e-01 0.000000e+00  7.477211e-01 -1.406966e-01 0.000000e+00  1.713578e+00 4.308929e-01 0.000000e+00  1.549879e+00 -4.760821e-01 0.000000e+00  1.459075e+00 1.871809e-01 0.000000e+00  1.640168e+00 -3.394656e-02 0.000000e+00  1.657422e+00 -1.004231e-01 0.000000e+00  1.582714e+00 4.219266e-01 0.000000e+00  1.341851e+00 -4.863792e-01 0.000000e+00  1.549012e+00 -9.469604e-02 0.000000e+00  1.111287e+00 -2.161438e-01 0.000000e+00  1.525150e+00 -3.810684e-01 0.000000e+00  1.441453e+00 4.417727e-01 0.000000e+00  1.409830e+00 7.749205e-02 0.000000e+00  1.412743e+00 2.419220e-01 0.000000e+00  1.417302e+00 -9.030126e-02 0.000000e+00  2.094859e+00 -2.743489e-03 0.000000e+00  1.686199e+00 2.352884e-01 0.000000e+00  1.532061e+00 -1.285588e-01 0.000000e+00  8.590335e-01 -3.291029e-02 0.000000e+00  1.284592e+00 8.945620e-02 0.000000e+00  1.223330e+00 -2.164815e-01 0.000000e+00  9.012752e-01 9.048086e-02 0.000000e+00  -2.502966e-01 2.690421e-01 0.000000e+00  7.872979e-01 1.570192e-01 0.000000e+00  2.341927e-01 2.045090e-01 0.000000e+00  -2.482786e-02 1.056034e-01 0.000000e+00  9.622746e-01 6.362597e-02 0.000000e+00  1.237376e+00 9.161672e-02 0.000000e+00  9.972026e-01 -2.815598e-02 0.000000e+00  1.558560e+00 -1.710433e-01 0.000000e+00  1.274946e+00 -1.149438e-01 0.000000e+00  1.754639e+00 -2.868570e-01 0.000000e+00  1.222660e+00 9.349599e-02 0.000000e+00  1.050709e+00 -3.512978e-02 0.000000e+00  1.045530e+00 -2.142955e-01 0.000000e+00  9.672564e-01 1.689494e-01 0.000000e+00  1.082983e+00 -2.686540e-04 0.000000e+00  1.204452e+00 1.311621e-01 0.000000e+00  1.416084e+00 -9.413736e-02 0.000000e+00  1.099767e+00 9.933252e-02 0.000000e+00  1.148959e+00 9.004369e-02 0.000000e+00  9.456842e-01 7.677003e-02 0.000000e+00  1.209361e+00 -1.389288e-02 0.000000e+00  8.695853e-01 -2.123833e-02 0.000000e+00  9.920553e-01 -1.470003e-01 0.000000e+00  9.268120e-01 5.965166e-02 0.000000e+00  8.206504e-01 -1.612085e-02 0.000000e+00  1.014565e+00 -1.191203e-01 0.000000e+00  1.051054e+00 5.142526e-03 0.000000e+00  9.571665e-01 1.576086e-02 0.000000e+00  3.648405e-01 -7.217938e-01 0.000000e+00  8.795166e-01 3.810519e-01 0.000000e+00  1.432662e+00 -1.426126e-01 0.000000e+00  1.506993e+00 -2.908599e-01 0.000000e+00  1.660949e+00 6.789650e-01 0.000000e+00  1.264624e+00 -1.078744e-01 0.000000e+00  1.462756e+00 9.324397e-02 0.000000e+00  1.201311e+00 -2.803009e-01 0.000000e+00  1.489856e+00 1.272839e-01 0.000000e+00  -2.431061e-01 2.874655e-01 0.000000e+00  1.610633e+00 2.651637e-01 0.000000e+00  7.377759e-01 3.066150e-02 0.000000e+00  1.566604e+00 2.033734e-01 0.000000e+00  8.950295e-01 -7.935092e-02 0.000000e+00  1.180341e+00 2.652942e-02 0.000000e+00  7.858211e-01 -3.563187e-02 0.000000e+00  1.332672e+00 3.371003e-01 0.000000e+00  7.860978e-01 3.794420e-02 0.000000e+00  1.826793e+00 6.060275e-01 0.000000e+00  1.448327e+00 3.138434e-01 0.000000e+00  1.329085e+00 -2.233272e-01 0.000000e+00  1.169274e+00 -2.806612e-02 0.000000e+00  7.527848e-01 8.493495e-03 0.000000e+00  1.425474e+00 1.851076e-01 0.000000e+00  2.031298e+00 4.361465e-01 0.000000e+00  1.940692e+00 3.491327e-01 0.000000e+00  2.013028e+00 -1.805975e-01 0.000000e+00  1.772038e+00 -9.794475e-01 0.000000e+00  1.307705e+00 4.576901e-01 0.000000e+00  4.905797e-01 2.116404e-01 0.000000e+00  1.163847e+00 -2.120676e-01 0.000000e+00  1.134281e+00 1.063100e-01 0.000000e+00  6.981174e-01 1.240420e-01 0.000000e+00  8.328147e-01 -2.176496e-02 0.000000e+00  1.357605e+00 -7.454896e-02 0.000000e+00  1.549088e+00 -1.270780e-01 0.000000e+00  1.444476e+00 -7.398319e-02 0.000000e+00  5.209625e-01 -1.390029e-02 0.000000e+00  4.991836e-01 -7.666831e-03 0.000000e+00  0.000000e+00 0.000000e+00 0.000000e+00  9.221781e-01 -3.557736e-02 0.000000e+00  7.360223e-01 -8.975366e-02 0.000000e+00  0.000000e+00 0.000000e+00 0.000000e+00  5.604996e-01 7.633866e-02 0.000000e+00  4.903759e-01 3.162252e-02 0.000000e+00  0.000000e+00 0.000000e+00 0.000000e+00  1.025588e+00 5.857512e-02 0.000000e+00  6.562500e-01 0.000000e+00 0.000000e+00  1.933113e+00 1.547393e-01 0.000000e+00  1.305031e+00 2.905107e-02 0.000000e+00  1.474837e+00 -3.834114e-02 0.000000e+00  1.161426e+00 1.265855e-01 0.000000e+00  1.274090e+00 5.974353e-02 0.000000e+00  7.487774e-01 1.208663e-01 0.000000e+00  1.152649e-01 1.129711e-01 0.000000e+00  1.557263e+00 -1.415727e-01 0.000000e+00  1.991981e+00 3.815380e-01 0.000000e+00  1.417763e+00 1.300522e-01 0.000000e+00  1.499483e+00 -1.196483e-01 0.000000e+00  1.591183e+00 -1.159108e-01 0.000000e+00  1.566476e+00 -1.517787e-01 0.000000e+00  9.036183e-01 -1.702065e-02 0.000000e+00  6.007698e-01 -1.286758e-03 0.000000e+00  1.143638e+00 -2.054457e-02 0.000000e+00  1.117923e+00 -6.515188e-02 0.000000e+00  5.523692e-01 -2.574095e-01 0.000000e+00  5.817210e-01 -5.212308e-01 0.000000e+00  7.700167e-01 -5.445191e-02 0.000000e+00  1.432524e+00 -1.231758e-01 0.000000e+00  1.180427e+00 -7.498575e-02 0.000000e+00  1.350829e+00 -8.335412e-02 0.000000e+00  1.288210e+00 1.509129e-01 0.000000e+00  1.386036e+00 2.105549e-01 0.000000e+00  1.299370e+00 1.715915e-01 0.000000e+00  1.408407e+00 1.311565e-01 0.000000e+00  1.322847e+00 2.506787e-01 0.000000e+00  1.343728e+00 2.980116e-01 0.000000e+00  1.306355e+00 2.847349e-01 0.000000e+00  1.030217e+00 1.556483e-02 0.000000e+00  1.885126e+00 -2.683928e-01 0.000000e+00  1.930123e+00 -4.291774e-01 0.000000e+00  8.668652e-01 8.036845e-01 0.000000e+00  6.512439e-01 5.705021e-01 0.000000e+00  -7.071068e-01 -7.071068e-01 0.000000e+00  3.008951e-02 1.785886e-01 0.000000e+00  -5.728536e-02 2.003479e-01 0.000000e+00  2.588197e-01 9.659256e-01 0.000000e+00  -2.064503e-03 2.997146e-01 0.000000e+00  1.199106e+00 1.880064e-01 0.000000e+00  1.412187e+00 3.607332e-01 0.000000e+00  1.585530e+00 4.267978e-01 0.000000e+00  1.452383e+00 -2.686544e-01 0.000000e+00  1.523326e+00 -4.796992e-01 0.000000e+00  1.621698e+00 -2.869173e-01 0.000000e+00  1.089086e+00 -4.935012e-02 0.000000e+00  1.372799e+00 1.174335e-01 0.000000e+00  3.755229e-01 -8.086670e-03 0.000000e+00  3.651084e-01 -3.501599e-03 0.000000e+00  0.000000e+00 0.000000e+00 0.000000e+00  1.470787e+00 6.660688e-02 0.000000e+00  1.285318e+00 1.398295e-02 0.000000e+00  1.666693e+00 8.858974e-02 0.000000e+00  9.631268e-01 2.140000e-02 0.000000e+00  1.417950e+00 7.633454e-02 0.000000e+00  3.994621e-01 -1.345487e-03 0.000000e+00  4.820653e-01 2.671264e-02 0.000000e+00  5.150472e-01 3.116940e-02 0.000000e+00  0.000000e+00 0.000000e+00 0.000000e+00  1.334118e+00 2.623597e-01 0.000000e+00  1.622165e+00 2.924286e-01 0.000000e+00  8.463336e-01 9.599177e-02 0.000000e+00  1.190668e+00 1.746262e-01 0.000000e+00  5.256781e-01 -9.793729e-03 0.000000e+00  3.896874e-01 -1.916294e-02 0.000000e+00  0.000000e+00 0.000000e+00 0.000000e+00  1.208811e+00 -2.170081e-02 0.000000e+00  1.515178e+00 -3.348994e-01 0.000000e+00  1.083303e+00 -6.663399e-02 0.000000e+00  9.566867e-01 -1.074764e-01 0.000000e+00  3.710360e-01 -4.075793e-02 0.000000e+00  5.644808e-01 -3.885109e-02 0.000000e+00  0.000000e+00 0.000000e+00 0.000000e+00  1.135611e+00 -8.827459e-02 0.000000e+00  1.553938e+00 2.487527e-01 0.000000e+00  8.667900e-01 -1.177558e-01 0.000000e+00  1.199640e+00 -2.762096e-01 0.000000e+00  6.457971e-01 -4.682381e-02 0.000000e+00  1.570214e+00 -5.375902e-02 0.000000e+00  1.454248e+00 -6.294105e-03 0.000000e+00  8.636526e-01 2.563125e-02 0.000000e+00  8.838324e-01 6.364063e-03 0.000000e+00  0.000000e+00 0.000000e+00 0.000000e+00  1.204562e+00 2.192192e-01 0.000000e+00  1.448966e+00 2.237819e-01 0.000000e+00  6.028550e-01 1.668960e-02 0.000000e+00  6.391468e-01 1.898816e-02 0.000000e+00  0.000000e+00 0.000000e+00 0.000000e+00  1.089375e+00 9.259386e-02 0.000000e+00  1.097281e+00 1.394394e-01 0.000000e+00  6.750217e-01 -1.080349e-02 0.000000e+00  6.718457e-01 4.532163e-03 0.000000e+00  0.000000e+00 0.000000e+00 0.000000e+00  9.353135e-01 3.561666e-02 0.000000e+00  1.168119e+00 1.715882e-02 0.000000e+00  1.347114e+00 -2.004260e-01 0.000000e+00  1.486186e+00 -1.979618e-01 0.000000e+00  1.388960e+00 -7.364358e-02 0.000000e+00  1.242779e+00 -1.362771e-01 0.000000e+00  0.000000e+00 0.000000e+00 0.000000e+00  1.341803e+00 7.571896e-01 0.000000e+00  1.606731e+00 3.498833e-01 0.000000e+00  7.754246e-01 -1.316394e-02 0.000000e+00  7.274202e-01 -2.734778e-02 0.000000e+00  0.000000e+00 0.000000e+00 0.000000e+00  1.110621e+00 -1.008044e-01 0.000000e+00  1.523611e+00 -2.646652e-01 0.000000e+00  1.653678e+00 -1.592699e-01 0.000000e+00  1.530197e+00 -3.401278e-01 0.000000e+00  1.002926e+00 -6.979632e-02 0.000000e+00  8.871694e-01 -1.303796e-02 0.000000e+00  0.000000e+00 0.000000e+00 0.000000e+00  1.850495e+00 -3.099380e-01 0.000000e+00  1.684593e+00 -1.881056e-01 0.000000e+00  1.664174e+00 -4.638929e-01 0.000000e+00  1.168811e+00 -4.538367e-01 0.000000e+00  7.350338e-01 2.974891e-02 0.000000e+00  7.519690e-01 5.107152e-03 0.000000e+00  0.000000e+00 0.000000e+00 0.000000e+00  1.313799e+00 -2.679964e-02 0.000000e+00  1.663300e+00 1.231142e-01 0.000000e+00  1.556117e+00 3.267668e-01 0.000000e+00  9.489927e-01 3.064559e-02 0.000000e+00  9.980658e-01 -4.366353e-02 0.000000e+00  0.000000e+00 0.000000e+00 0.000000e+00  1.350237e+00 -1.753237e-01 0.000000e+00  1.551781e+00 -4.252229e-01 0.000000e+00  1.544180e+00 -2.383336e-01 0.000000e+00  8.082040e-01 -3.524015e-02 0.000000e+00  7.391822e-01 1.750068e-04 0.000000e+00  0.000000e+00 0.000000e+00 0.000000e+00  8.152947e-01 -1.474451e-02 0.000000e+00  3.300140e-01 -4.095971e-02 0.000000e+00  0.000000e+00 0.000000e+00 0.000000e+00  8.979863e-01 -1.372376e-01 0.000000e+00  9.183431e-01 -9.270687e-02 0.000000e+00  3.444753e-01 -1.487888e-02 0.000000e+00  7.125066e-01 -3.244232e-02 0.000000e+00  0.000000e+00 0.000000e+00 0.000000e+00  1.313911e+00 -3.152431e-01 0.000000e+00  1.131344e+00 -9.887195e-02 0.000000e+00  1.444590e+00 -2.044634e-01 0.000000e+00  7.510966e-01 -6.998516e-03 0.000000e+00  7.429141e-01 1.622798e-02 0.000000e+00  0.000000e+00 0.000000e+00 0.000000e+00  1.534897e+00 -6.099591e-03 0.000000e+00  1.204286e+00 5.733529e-02 0.000000e+00  1.498336e+00 1.247301e-01 0.000000e+00  7.043137e-01 2.708575e-02 0.000000e+00  6.606439e-01 2.738086e-02 0.000000e+00  0.000000e+00 0.000000e+00 0.000000e+00  1.348442e+00 1.579161e-01 0.000000e+00  1.131704e+00 1.038699e-01 0.000000e+00  6.986091e-01 2.704450e-02 0.000000e+00  8.697319e-01 -7.897672e-03 0.000000e+00  7.906002e-01 -4.870620e-02 0.000000e+00  0.000000e+00 0.000000e+00 0.000000e+00  1.525379e+00 8.466401e-02 0.000000e+00  1.327673e+00 -1.451753e-01 0.000000e+00  1.519414e+00 3.361419e-01 0.000000e+00  1.192248e+00 1.938507e-01 0.000000e+00  6.082082e-01 1.389192e-02 0.000000e+00  0.000000e+00 0.000000e+00 0.000000e+00  1.016751e+00 5.461945e-02 0.000000e+00  1.225246e+00 6.741649e-02 0.000000e+00  1.360875e+00 -1.059644e-01 0.000000e+00  1.147197e+00 -9.723155e-02 0.000000e+00  0.000000e+00 0.000000e+00 0.000000e+00  1.310391e+00 1.144917e-01 0.000000e+00  1.407388e+00 5.639012e-02 0.000000e+00  0.000000e+00 0.000000e+00 0.000000e+00  9.836665e-01 6.322164e-02 0.000000e+00  9.453533e-01 6.351076e-01 0.000000e+00  1.797046e+00 6.718906e-01 0.000000e+00  1.008696e+00 -3.901067e-02 0.000000e+00  0.000000e+00 0.000000e+00 0.000000e+00  1.261617e+00 -1.776866e-01 0.000000e+00  1.635433e+00 -4.932581e-01 0.000000e+00  5.801567e-01 -4.784757e-01 0.000000e+00  8.752790e-01 -8.502006e-02 0.000000e+00  1.284753e+00 -1.858762e-02 0.000000e+00  1.199303e+00 2.015413e-01 0.000000e+00  1.137897e+00 1.061671e-01 0.000000e+00  0.000000e+00 0.000000e+00 0.000000e+00  1.001265e+00 8.905403e-02 0.000000e+00  1.122501e+00 2.437083e-02 0.000000e+00  0.000000e+00 0.000000e+00 0.000000e+00  -1.492980e-01 3.283484e-01 0.000000e+00  -2.587927e-01 4.995435e-01 0.000000e+00  -2.093431e-01 3.444543e-01 0.000000e+00  -2.803721e-01 2.605784e-01 0.000000e+00  9.703367e-01 7.925855e-02 0.000000e+00  1.085680e+00 3.374406e-02 0.000000e+00  7.954635e-01 -3.088436e-02 0.000000e+00  1.660758e+00 7.900257e-02 0.000000e+00  1.674908e+00 2.894793e-01 0.000000e+00  1.077463e+00 1.309685e-01 0.000000e+00  1.266637e+00 -2.071874e-02 0.000000e+00  5.725983e-01 -4.507390e-02 0.000000e+00  5.316112e-01 -1.539360e-02 0.000000e+00  0.000000e+00 0.000000e+00 0.000000e+00  6.484073e-01 2.062195e-02 0.000000e+00  6.761719e-01 2.133816e-02 0.000000e+00  0.000000e+00 0.000000e+00 0.000000e+00  1.156816e+00 7.878303e-04 0.000000e+00  4.475944e-01 -1.184293e-02 0.000000e+00  4.732794e-01 -1.839272e-02 0.000000e+00  0.000000e+00 0.000000e+00 0.000000e+00  9.352833e-01 -4.350747e-02 0.000000e+00  6.782267e-01 -1.870428e-02 0.000000e+00  8.245136e-01 -3.802243e-02 0.000000e+00  1.592174e+00 4.968013e-01 0.000000e+00  1.117556e+00 2.215303e-01 0.000000e+00  1.819215e+00 4.545980e-01 0.000000e+00  4.193980e-01 2.691057e-03 0.000000e+00  4.600398e-01 1.775196e-02 0.000000e+00  0.000000e+00 0.000000e+00 0.000000e+00  9.759345e-01 7.913709e-02 0.000000e+00  9.846151e-01 8.028564e-02 0.000000e+00  1.643730e+00 4.016072e-01 0.000000e+00  1.319035e+00 2.706362e-01 0.000000e+00  8.115027e-01 -6.976682e-03 0.000000e+00  9.849608e-01 -3.087522e-02 0.000000e+00  1.056694e+00 -6.283258e-02 0.000000e+00  1.065371e+00 -6.770433e-02 0.000000e+00  -1.612319e-01 1.584257e-01 0.000000e+00  -1.640376e-01 4.227323e-01 0.000000e+00  -2.588197e-01 9.659256e-01 0.000000e+00  -3.365629e-01 1.818653e-01 0.000000e+00  1.510860e+00 -1.505557e-01 0.000000e+00  1.328662e+00 -1.182171e-01 0.000000e+00  2.861248e-01 1.785663e-02 0.000000e+00  3.052968e-01 4.014514e-03 0.000000e+00  0.000000e+00 0.000000e+00 0.000000e+00  1.503915e+00 2.016643e-01 0.000000e+00  1.343683e+00 -2.611866e-02 0.000000e+00  1.778070e+00 6.449285e-02 0.000000e+00  3.707748e-01 4.090234e-02 0.000000e+00  0.000000e+00 0.000000e+00 0.000000e+00  5.124446e-01 1.006276e-01 0.000000e+00  1.180373e+00 -2.325862e-01 0.000000e+00  1.143641e+00 -1.602788e-01 0.000000e+00  1.521753e+00 -3.930924e-01 0.000000e+00  1.076095e+00 2.554162e-01 0.000000e+00  1.832331e+00 3.998118e-01 0.000000e+00  1.584107e+00 3.041288e-01 0.000000e+00  1.066536e+00 1.258517e-01 0.000000e+00  1.800556e+00 -2.858682e-01 0.000000e+00  1.668806e+00 -5.828533e-01 0.000000e+00  1.593029e+00 1.497983e-01 0.000000e+00  1.616741e+00 4.558714e-01 0.000000e+00  3.662935e-01 1.439138e-01 0.000000e+00  -1.153756e-01 2.710684e-01 0.000000e+00  -7.071068e-01 7.071068e-01 0.000000e+00  1.497288e+00 3.141999e-01 0.000000e+00  1.849719e+00 3.638393e-01 0.000000e+00  6.855698e-01 -8.707946e-03 0.000000e+00  6.625098e-01 -1.212632e-02 0.000000e+00  0.000000e+00 0.000000e+00 0.000000e+00  1.314355e+00 -6.414862e-02 0.000000e+00  8.570022e-01 -2.949934e-02 0.000000e+00  1.275028e+00 1.811064e-02 0.000000e+00  1.491335e+00 1.091920e-02 0.000000e+00  1.116187e+00 -3.187382e-01 0.000000e+00  1.040284e+00 9.112290e-02 0.000000e+00  3.151777e-01 -1.699481e-02 0.000000e+00  3.076797e-01 1.290852e-02 0.000000e+00  0.000000e+00 0.000000e+00 0.000000e+00  7.515490e-01 5.906687e-02 0.000000e+00  8.892846e-01 1.086133e-01 0.000000e+00  8.592411e-01 4.112095e-03 0.000000e+00  8.352475e-01 -1.205974e-01 0.000000e+00  1.488058e+00 1.900965e-01 0.000000e+00  9.791117e-01 1.056006e-01 0.000000e+00  7.825554e-01 9.636434e-02 0.000000e+00  0.000000e+00 0.000000e+00 0.000000e+00  1.496371e+00 2.256932e-01 0.000000e+00  9.002522e-01 1.356674e-01 0.000000e+00  1.688352e+00 2.678484e-01 0.000000e+00  1.791160e+00 2.539139e-01 0.000000e+00  1.961051e+00 3.744532e-01 0.000000e+00  1.866354e+00 2.581291e-01 0.000000e+00  2.269066e+00 1.220772e-01 0.000000e+00  2.580657e+00 -7.181148e-02 0.000000e+00  1.546056e+00 5.742144e-01 0.000000e+00  5.316864e-01 -1.308561e-03 0.000000e+00  0.000000e+00 0.000000e+00 0.000000e+00  6.048025e-01 -6.331585e-02 0.000000e+00  1.798492e+00 4.358731e-03 0.000000e+00  5.230304e-01 -7.373289e-02 0.000000e+00  0.000000e+00 0.000000e+00 0.000000e+00  1.182649e+00 4.088079e-04 0.000000e+00  1.635064e+00 -3.149363e-01 0.000000e+00  1.463191e+00 2.549182e-03 0.000000e+00  1.406250e+00 0.000000e+00 0.000000e+00  6.012756e-01 2.072919e-01 0.000000e+00  6.412495e-01 2.360604e-01 0.000000e+00  7.071068e-01 7.071068e-01 0.000000e+00  1.079558e+00 3.113092e-01 0.000000e+00  9.451289e-01 -6.343165e-01 0.000000e+00  8.650650e-01 -4.189215e-01 0.000000e+00  2.588197e-01 -9.659256e-01 0.000000e+00  1.275238e+00 -8.173628e-01 0.000000e+00  1.513203e+00 -1.380926e+00 0.000000e+00  1.467996e+00 -1.259485e-01 0.000000e+00  1.186160e+00 5.482998e-01 0.000000e+00  1.218217e+00 2.894870e-01 0.000000e+00  1.880467e-01 1.844744e-01 0.000000e+00  -3.569654e-01 1.085066e-01 0.000000e+00  1.440806e+00 3.618977e-01 0.000000e+00  7.801158e-01 -1.384729e-01 0.000000e+00  6.703153e-01 -6.744745e-02 0.000000e+00  0.000000e+00 0.000000e+00 0.000000e+00  1.111562e+00 -1.028714e-01 0.000000e+00  6.562500e-01 0.000000e+00 0.000000e+00  1.286668e-02 -5.135991e-01 0.000000e+00  1.259284e+00 1.929956e-01 0.000000e+00  1.877468e+00 2.776573e-01 0.000000e+00  1.061991e+00 2.251500e-01 0.000000e+00  -5.495024e-01 -1.313100e-01 0.000000e+00  1.169854e+00 -2.523989e-01 0.000000e+00  1.396594e+00 -1.246266e-01 0.000000e+00  1.406250e+00 0.000000e+00 0.000000e+00  1.403476e+00 -5.309402e-01 0.000000e+00  1.559539e+00 -4.015009e-01 0.000000e+00  1.334407e+00 -3.602444e-01 0.000000e+00  2.024234e+00 -1.282217e+00 0.000000e+00  7.071068e-01 -7.071068e-01 0.000000e+00  1.833031e+00 3.055731e-01 0.000000e+00  -4.027123e-01 -3.780356e-01 0.000000e+00  7.78