<?xml version="1.0"?>
<VTKFile type="UnstructuredGrid"  version="0.1"  >
<UnstructuredGrid>
<Piece  NumberOfPoints="525" NumberOfCells="924">
<Points>
<DataArray  type="Float32"  NumberOfComponents="3"  format="ascii">0 0 0  2.2 0 0  2.2 0.41 0  0 0.41 0  0.15 0.2 0  0.25 0.2 0  0.2 0.15 0  0.2 0.25 0  0.104762 0 0  0.209524 0 0  0.314286 0 0  0.419048 0 0  0.52381 0 0  0.628571 0 0  0.733333 0 0  0.838095 0 0  0.942857 0 0  1.04762 0 0  1.15238 0 0  1.25714 0 0  1.3619 0 0  1.46667 0 0  1.57143 0 0  1.67619 0 0  1.78095 0 0  1.88571 0 0  1.99048 0 0  2.09524 0 0  2.2 0.1025 0  2.2 0.205 0  2.2 0.3075 0  2.1 0.41 0  2 0.41 0  1.9 0.41 0  1.8 0.41 0  1.7 0.41 0  1.6 0.41 0  1.5 0.41 0  1.4 0.41 0  1.3 0.41 0  1.2 0.41 0  1.1 0.41 0  1 0.41 0  0.9 0.41 0  0.8 0.41 0  0.7 0.41 0  0.6 0.41 0  0.5 0.41 0  0.4 0.41 0  0.3 0.41 0  0.2 0.41 0  0.1 0.41 0  0 0.3075 0  0 0.205 0  0 0.1025 0  0.156699 0.225 0  0.175 0.243301 0  0.225 0.243301 0  0.243301 0.225 0  0.243301 0.175 0  0.225 0.156699 0  0.175 0.156699 0  0.156699 0.175 0  0.352033 0.262216 0  1.04579 0.252253 0  1.24065 0.243419 0  0.985775 0.171509 0  1.30324 0.187395 0  0.890988 0.190768 0  1.39085 0.202767 0  0.801464 0.204685 0  1.49904 0.204666 0  0.704267 0.202289 0  1.60238 0.204951 0  0.487789 0.19191 0  1.72935 0.219637 0  1.83335 0.187427 0  2.03359 0.193642 0  0.314663 0.307348 0  0.249039 0.333583 0  2.12147 0.253405 0  2.06373 0.0836837 0  0.0734726 0.267055 0  0.143989 0.0677174 0  0.0613613 0.33781 0  0.299628 0.236829 0  0.527114 0.295386 0  0.262384 0.26549 0  0.275777 0.18341 0  1.74578 0.330928 0  1.84001 0.302448 0  1.64998 0.313838 0  0.648421 0.302367 0  1.54544 0.308508 0  0.755686 0.306156 0  1.42668 0.314809 0  0.870524 0.298596 0  1.22553 0.112785 0  1.05603 0.147372 0  0.969346 0.329867 0  1.32527 0.276284 0  2.02914 0.29511 0  1.88168 0.119486 0  1.79545 0.104842 0  1.35688 0.0892539 0  1.69041 0.105324 0  0.914199 0.0955566 0  1.58234 0.102923 0  0.61843 0.10815 0  1.47999 0.101161 0  0.725217 0.104273 0  0.821727 0.102306 0  1.96725 0.105778 0  0.418624 0.241547 0  0.135226 0.239087 0  1.14921 0.314841 0  0.404508 0.333259 0  0.590155 0.206269 0  2.12554 0.150731 0  1.93166 0.22436 0  0.104689 0.190046 0  0.267856 0.0744753 0  0.269368 0.221581 0  0.434446 0.114927 0  1.0089 0.0793381 0  0.953023 0.246698 0  1.25853 0.33355 0  1.05268 0.340828 0  2.1369 0.067383 0  0.522398 0.112537 0  1.3421 0.348929 0  0.215186 0.289473 0  0.203197 0.335348 0  1.13984 0.190728 0  1.93813 0.330504 0  1.10505 0.0883705 0  0.341988 0.0824728 0  0.253113 0.138035 0  0.291932 0.131907 0  0.203713 0.102439 0  0.150375 0.134668 0  0.151494 0.309119 0  0.354384 0.17896 0  0.0685367 0.100776 0  0.424128 0.180088 0  0.474925 0.0568661 0  2.10843 0.347669 0  2.16073 0.280452 0  2.16073 0.229202 0  2.2 0.25625 0  2.07949 0.0418418 0  2.02711 0.0418418 0  2.04286 0 0  0.176756 0.0338587 0  0.124375 0.0338587 0  0.157143 0 0  0.0806807 0.373905 0  0.0306807 0.373905 0  0.05 0.41 0  0.0306807 0.322655 0  0 0.35875 0  0.281851 0.320466 0  0.27452 0.371791 0  0.307331 0.358674 0  0.067417 0.302432 0  0.0367363 0.287277 0  0.307146 0.272089 0  0.325831 0.249523 0  0.333348 0.284782 0  0.255711 0.299536 0  0.288524 0.286419 0  2.07531 0.274257 0  2.03137 0.244376 0  2.07753 0.223523 0  2.01549 0.0947309 0  1.97886 0.052889 0  2.00042 0.14971 0  2.04866 0.138663 0  0.472869 0.268466 0  0.453206 0.216728 0  0.507451 0.243648 0  2.16277 0.177866 0  2.16277 0.126615 0  2.2 0.15375 0  1.90667 0.171923 0  1.88251 0.205894 0  1.85752 0.153456 0  1.88583 0.263404 0  1.83668 0.244938 0  0.604293 0.15721 0  0.647211 0.204279 0  0.661349 0.15522 0  0.359586 0.320304 0  0.37827 0.297737 0  0.155113 0.241194 0  0.145962 0.232044 0  0.164645 0.235355 0  0.259539 0.179205 0  0.262888 0.191705 0  0.248296 0.187059 0  0.281006 0.251159 0  1.0209 0.15944 0  1.05091 0.199813 0  1.01578 0.211881 0  1.26438 0.15009 0  1.23309 0.178102 0  1.27195 0.215407 0  1.29121 0.101019 0  1.33006 0.138324 0  0.928528 0.0477783 0  0.876147 0.0477783 0  0.890476 0 0  0.902594 0.143162 0  0.949987 0.133533 0  0.938381 0.181138 0  0.867963 0.0989313 0  0.856357 0.146537 0  0.829911 0.051153 0  1.41178 0.0446269 0  1.35939 0.0446269 0  1.41429 0 0  1.37386 0.14601 0  1.34705 0.195081 0  1.41844 0.0952074 0  1.43542 0.151964 0  1.47333 0.0505805 0  0.77753 0.051153 0  0.785714 0 0  0.811595 0.153496 0  0.846226 0.197726 0  0.773472 0.10329 0  0.76334 0.154479 0  0.729275 0.0521365 0  1.52571 0.0505805 0  1.51905 0 0  1.48951 0.152913 0  1.44494 0.203716 0  1.53117 0.102042 0  1.54069 0.153795 0  1.57689 0.0514615 0  1.9804 0.259735 0  1.98262 0.209001 0  1.82001 0.356224 0  1.87 0.356224 0  1.85 0.41 0  1.78468 0.261043 0  1.78135 0.203532 0  1.72289 0.370464 0  1.77289 0.370464 0  1.75 0.41 0  1.7929 0.316688 0  1.73757 0.275282 0  1.62499 0.361919 0  1.67499 0.361919 0  1.65 0.41 0  1.69788 0.322383 0  1.68966 0.266738 0  1.62618 0.259394 0  1.66586 0.212294 0  0.624211 0.356183 0  0.674211 0.356183 0  0.65 0.41 0  0.619288 0.254318 0  0.676344 0.252328 0  1.52272 0.359254 0  1.57272 0.359254 0  1.55 0.41 0  1.59771 0.311173 0  1.57391 0.256729 0  1.52224 0.256587 0  1.55071 0.204809 0  0.727843 0.358078 0  0.777843 0.358078 0  0.75 0.41 0  0.702053 0.304261 0  0.729977 0.254223 0  0.778575 0.25542 0  0.752865 0.203487 0  1.41334 0.362405 0  1.46334 0.362405 0  1.45 0.41 0  1.48606 0.311659 0  1.46286 0.259738 0  1.40876 0.258788 0  0.835262 0.354298 0  0.885262 0.354298 0  0.85 0.41 0  0.813105 0.302376 0  0.835994 0.25164 0  0.880756 0.244682 0  0.934673 0.369934 0  0.984673 0.369934 0  0.95 0.41 0  0.919935 0.314231 0  0.676894 0.0521365 0  0.680952 0 0  0.714742 0.153281 0  0.671824 0.106212 0  0.623501 0.054075 0  1.62927 0.0514615 0  1.62381 0 0  1.59236 0.153937 0  1.63638 0.104124 0  1.6464 0.155137 0  1.6833 0.052662 0  1.73568 0.052662 0  1.72857 0 0  1.70988 0.16248 0  1.74293 0.105083 0  1.7624 0.16224 0  1.7882 0.052421 0  1.84058 0.052421 0  1.83333 0 0  1.8144 0.146135 0  1.83857 0.112164 0  1.88369 0.059743 0  1.12461 0.36242 0  1.17461 0.36242 0  1.15 0.41 0  1.31425 0.231839 0  1.28296 0.259852 0  1.35806 0.239526 0  1.37597 0.295546 0  1.92648 0.052889 0  1.9381 0 0  1.92447 0.112632 0  1.94945 0.165069 0  0.352254 0.37163 0  0.402254 0.37163 0  0.35 0.41 0  0.513557 0.352693 0  0.563557 0.352693 0  0.55 0.41 0  0.587767 0.298876 0  0.558634 0.250827 0  0.538972 0.19909 0  0.452254 0.37163 0  0.45 0.41 0  0.465811 0.314323 0  0.411566 0.287403 0  0.385328 0.251881 0  0.119958 0.214566 0  0.0890808 0.22855 0  0.104349 0.253071 0  0.22452 0.371791 0  0.25 0.41 0  0.291071 0.0372376 0  0.23869 0.0372376 0  0.261905 0 0  0.265876 0.243536 0  0.256335 0.223291 0  0.252842 0.245245 0  0.284498 0.229205 0  1.03246 0.113355 0  0.997337 0.125424 0  0.961549 0.0874474 0  0.922006 0.218733 0  0.969399 0.209103 0  0.961184 0.288282 0  0.911774 0.272647 0  1.22926 0.371775 0  1.27927 0.371775 0  1.25 0.41 0  1.02634 0.375414 0  1.07634 0.375414 0  1.05 0.41 0  1.01101 0.335348 0  2.11607 0.0336915 0  2.16845 0.0336915 0  2.14762 0 0  2.16845 0.0849415 0  2.2 0.05125 0  2.10032 0.0755333 0  0.556277 0.159403 0  0.570414 0.110343 0  0.505093 0.152224 0  1.32105 0.379464 0  1.37105 0.379464 0  1.35 0.41 0  1.33369 0.312607 0  1.38439 0.331869 0  0.999406 0.249476 0  1.00757 0.29106 0  1.30031 0.34124 0  1.2919 0.304917 0  2.13122 0.109057 0  2.09464 0.117207 0  0.272572 0.202495 0  0.259684 0.21079 0  0.248296 0.212941 0  0.287702 0.21012 0  2.1235 0.202068 0  2.07956 0.172187 0  1.02826 0.039669 0  0.975878 0.039669 0  0.995238 0 0  1.04923 0.29654 0  1.10095 0.327835 0  1.0975 0.283547 0  0.57112 0.054075 0  0.576191 0 0  0.523104 0.0562685 0  1.24959 0.288485 0  1.20387 0.324195 0  1.19493 0.27913 0  0.238785 0.277481 0  0.232112 0.311528 0  0.226118 0.334465 0  0.201599 0.372674 0  1.14453 0.252784 0  1.19024 0.217074 0  1.09281 0.221491 0  0.209191 0.31241 0  0.220093 0.266387 0  0.243692 0.254395 0  0.235355 0.235355 0  0.478422 0.113732 0  0.461117 0.153419 0  1.91906 0.370252 0  1.96907 0.370252 0  1.95 0.41 0  1.98364 0.312807 0  2.01457 0.352555 0  1.88907 0.316476 0  1.9349 0.277432 0  1.18268 0.151757 0  1.09794 0.16905 0  1.12872 0.0441853 0  1.07634 0.0441853 0  1.1 0 0  1.05697 0.0838543 0  1.08054 0.117871 0  1.12244 0.139549 0  1.16529 0.100578 0  0.304922 0.078474 0  0.328137 0.0412364 0  0.380518 0.0412364 0  0.366667 0 0  0.388217 0.0986999 0  0.426747 0.0574635 0  0.31696 0.10719 0  0.279894 0.103191 0  0.272523 0.134971 0  0.260485 0.106255 0  0.228413 0.120237 0  0.214357 0.129569 0  0.239057 0.147367 0  1.30701 0.0446269 0  1.30952 0 0  1.24133 0.0563925 0  0.235785 0.0884571 0  1.18895 0.0563925 0  1.20476 0 0  0.206618 0.0512195 0  0.173851 0.0850782 0  0.0367363 0.236028 0  0 0.25625 0  0.264445 0.160722 0  0.248207 0.156517 0  0.235355 0.164645 0  0.283855 0.157658 0  0.130694 0.182523 0  0.127344 0.195023 0  0.151704 0.187059 0  0.127532 0.162357 0  0.153537 0.154834 0  0.0523445 0.197523 0  0.14336 0.274103 0  0.112483 0.288087 0  0.31508 0.181185 0  0.327006 0.207895 0  0.323158 0.155434 0  0.0866493 0.050388 0  0.0342684 0.050388 0  0.052381 0 0  0.0342684 0.101638 0  0 0.05125 0  0.421376 0.210817 0  0.455958 0.185999 0  0.429287 0.147508 0  0.106428 0.323464 0  0.353208 0.220588 0  0.106263 0.0842467 0  0.0342684 0.152888 0  0 0.15375 0  0.109456 0.117722 0  0.147182 0.101193 0  0.0866129 0.145411 0  0.162687 0.145684 0  0.164645 0.164645 0  0.348186 0.130716 0  0.386504 0.210254 0  0.389256 0.179524 0  0.394415 0.146944 0  0.125747 0.359559 0  0.175747 0.359559 0  0.15 0.41 0  0.177345 0.322233 0  0.142613 0.219544 0  0.151704 0.212941 0  0.499367 0.0284331 0  0.446986 0.0284331 0  0.471429 0 0  0.498661 0.0847016 0  0.454685 0.0858966 0  0.201856 0.126219 0  0.212941 0.151704 0  0.18334 0.299296 0  0.175187 0.142334 0  0.187059 0.151704 0  0.177044 0.118554 0  2.15421 0.327585 0  2.15421 0.378834 0  2.2 0.35875 0  2.10421 0.378834 0  2.15 0.41 0  2.05422 0.378
[...]
<PointData  Vectors="u"> 
<DataArray  type="Float32"  Name="u"  NumberOfComponents="3" format="ascii">0.000000e+00 0.000000e+00 0.000000e+00  0.000000e+00 0.000000e+00 0.000000e+00  0.000000e+00 0.000000e+00 0.000000e+00  0.000000e+00 0.000000e+00 0.000000e+00  0.000000e+00 -1.000000e+00 0.000000e+00  0.000000e+00 1.000000e+00 0.000000e+00  1.000000e+00 0.000000e+00 0.000000e+00  -1.000000e+00 0.000000e+00 0.000000e+00  0.000000e+00 0.000000e+00 0.000000e+00  0.000000e+00 0.000000e+00 0.000000e+00  0.000000e+00 0.000000e+00 0.000000e+00  0.000000e+00 0.000000e+00 0.000000e+00  0.000000e+00 0.000000e+00 0.000000e+00  0.000000e+00 0.000000e+00 0.000000e+00  0.000000e+00 0.000000e+00 0.000000e+00  0.000000e+00 0.000000e+00 0.000000e+00  0.000000e+00 0.000000e+00 0.000000e+00  0.000000e+00 0.000000e+00 0.000000e+00  0.000000e+00 0.000000e+00 0.000000e+00  0.000000e+00 0.000000e+00 0.000000e+00  0.000000e+00 0.000000e+00 0.000000e+00  0.000000e+00 0.000000e+00 0.000000e+00  0.000000e+00 0.000000e+00 0.000000e+00  0.000000e+00 0.000000e+00 0.000000e+00  0.000000e+00 0.000000e+00 0.000000e+00  0.000000e+00 0.000000e+00 0.000000e+00  0.000000e+00 0.000000e+00 0.000000e+00  0.000000e+00 0.000000e+00 0.000000e+00  1.168402e+00 6.272065e-03 0.000000e+00  1.615418e+00 -1.904226e-02 0.000000e+00  9.325767e-01 4.314891e-02 0.000000e+00  0.000000e+00 0.000000e+00 0.000000e+00  0.000000e+00 0.000000e+00 0.000000e+00  0.000000e+00 0.000000e+00 0.000000e+00  0.000000e+00 0.000000e+00 0.000000e+00  0.000000e+00 0.000000e+00 0.000000e+00  0.000000e+00 0.000000e+00 0.000000e+00  0.000000e+00 0.000000e+00 0.000000e+00  0.000000e+00 0.000000e+00 0.000000e+00  0.000000e+00 0.000000e+00 0.000000e+00  0.000000e+00 0.000000e+00 0.000000e+00  0.000000e+00 0.000000e+00 0.000000e+00  0.000000e+00 0.000000e+00 0.000000e+00  0.000000e+00 0.000000e+00 0.000000e+00  0.000000e+00 0.000000e+00 0.000000e+00  0.000000e+00 0.000000e+00 0.000000e+00  0.000000e+00 0.000000e+00 0.000000e+00  0.000000e+00 0.000000e+00 0.000000e+00  0.000000e+00 0.000000e+00 0.000000e+00  0.000000e+00 0.000000e+00 0.000000e+00  0.000000e+00 0.000000e+00 0.000000e+00  0.000000e+00 0.000000e+00 0.000000e+00  1.125000e+00 0.000000e+00 0.000000e+00  1.500000e+00 0.000000e+00 0.000000e+00  1.125000e+00 0.000000e+00 0.000000e+00  -5.000023e-01 -8.660241e-01 0.000000e+00  -8.660241e-01 -5.000023e-01 0.000000e+00  -8.660241e-01 5.000023e-01 0.000000e+00  -5.000023e-01 8.660241e-01 0.000000e+00  5.000023e-01 8.660241e-01 0.000000e+00  8.660241e-01 5.000023e-01 0.000000e+00  8.660241e-01 -5.000023e-01 0.000000e+00  5.000023e-01 -8.660241e-01 0.000000e+00  5.415756e-01 1.182865e-01 0.000000e+00  1.600870e+00 3.571757e-01 0.000000e+00  1.675253e+00 -3.879763e-01 0.000000e+00  1.577730e+00 9.796453e-02 0.000000e+00  1.574946e+00 -3.078871e-01 0.000000e+00  1.466275e+00 -2.542023e-01 0.000000e+00  1.638862e+00 2.696880e-02 0.000000e+00  1.205405e+00 -4.269920e-01 0.000000e+00  1.459548e+00 3.200523e-01 0.000000e+00  1.268096e+00 1.172891e-01 0.000000e+00  1.497643e+00 -1.783863e-01 0.000000e+00  1.029005e+00 1.515657e-01 0.000000e+00  1.603332e+00 -2.523315e-01 0.000000e+00  1.591427e+00 1.030521e-01 0.000000e+00  1.501548e+00 -1.223295e-01 0.000000e+00  2.051529e+00 7.361052e-02 0.000000e+00  1.671368e+00 2.727658e-01 0.000000e+00  1.489538e+00 -2.828871e-01 0.000000e+00  8.349419e-01 -7.810684e-02 0.000000e+00  1.282497e+00 8.416543e-02 0.000000e+00  1.229543e+00 -2.263873e-01 0.000000e+00  8.987714e-01 9.011115e-02 0.000000e+00  -2.741511e-01 2.852570e-01 0.000000e+00  9.656039e-01 -5.609143e-02 0.000000e+00  1.651509e-01 1.678730e-01 0.000000e+00  2.395419e-02 5.297537e-02 0.000000e+00  9.042260e-01 -1.809118e-02 0.000000e+00  1.082477e+00 1.090363e-01 0.000000e+00  1.222557e+00 -1.336677e-01 0.000000e+00  1.183607e+00 -2.891098e-02 0.000000e+00  1.412302e+00 -8.791444e-05 0.000000e+00  1.846963e+00 -2.905374e-01 0.000000e+00  1.053939e+00 9.915926e-02 0.000000e+00  1.342827e+00 -1.671413e-01 0.000000e+00  9.792432e-01 -4.899740e-02 0.000000e+00  1.098413e+00 7.956677e-02 0.000000e+00  9.821751e-01 3.111835e-02 0.000000e+00  1.283436e+00 -1.876536e-01 0.000000e+00  1.410676e+00 -1.184901e-01 0.000000e+00  1.175052e+00 1.179218e-01 0.000000e+00  1.123923e+00 3.396571e-03 0.000000e+00  9.245294e-01 -4.451642e-02 0.000000e+00  1.012511e+00 -1.089218e-01 0.000000e+00  8.914640e-01 -3.292324e-03 0.000000e+00  8.616799e-01 -1.076908e-02 0.000000e+00  1.008192e+00 1.503417e-01 0.000000e+00  9.652829e-01 8.555227e-02 0.000000e+00  9.306316e-01 -1.143777e-01 0.000000e+00  1.053153e+00 -3.063231e-02 0.000000e+00  9.212690e-01 2.975404e-02 0.000000e+00  4.035913e-01 -5.805430e-01 0.000000e+00  8.702662e-01 3.625027e-01 0.000000e+00  1.477752e+00 -3.501452e-02 0.000000e+00  1.653189e+00 -3.106369e-01 0.000000e+00  1.779584e+00 6.239434e-01 0.000000e+00  1.382690e+00 -2.402913e-01 0.000000e+00  1.541811e+00 2.443667e-01 0.000000e+00  1.202109e+00 -2.956750e-01 0.000000e+00  1.491836e+00 1.326490e-01 0.000000e+00  -2.143882e-01 2.023534e-01 0.000000e+00  1.573369e+00 1.904852e-01 0.000000e+00  7.348684e-01 -3.691318e-02 0.000000e+00  1.570938e+00 -1.551453e-02 0.000000e+00  1.079722e+00 -9.567887e-02 0.000000e+00  1.172233e+00 3.714236e-03 0.000000e+00  8.021115e-01 -4.956991e-02 0.000000e+00  1.417180e+00 2.911469e-01 0.000000e+00  8.254844e-01 -3.887807e-02 0.000000e+00  1.792609e+00 6.112554e-01 0.000000e+00  1.437810e+00 3.224314e-01 0.000000e+00  1.228011e+00 6.761570e-02 0.000000e+00  1.082718e+00 1.910687e-02 0.000000e+00  8.294886e-01 4.075226e-02 0.000000e+00  1.405520e+00 2.020679e-01 0.000000e+00  2.065217e+00 4.510252e-01 0.000000e+00  1.959956e+00 3.758130e-01 0.000000e+00  2.031390e+00 -1.728207e-01 0.000000e+00  1.789293e+00 -9.970009e-01 0.000000e+00  1.289890e+00 4.634556e-01 0.000000e+00  6.175136e-01 3.563563e-01 0.000000e+00  1.165456e+00 -2.297103e-01 0.000000e+00  8.841821e-01 7.063758e-02 0.000000e+00  7.472646e-01 9.701109e-02 0.000000e+00  7.605942e-01 -3.773082e-02 0.000000e+00  1.162468e+00 -1.081419e-01 0.000000e+00  1.559229e+00 -2.083843e-01 0.000000e+00  1.318968e+00 1.567586e-02 0.000000e+00  5.047737e-01 -3.222711e-02 0.000000e+00  4.597156e-01 -1.930043e-02 0.000000e+00  0.000000e+00 0.000000e+00 0.000000e+00  9.319568e-01 -3.680078e-02 0.000000e+00  7.441059e-01 -9.047341e-02 0.000000e+00  0.000000e+00 0.000000e+00 0.000000e+00  5.568845e-01 7.490270e-02 0.000000e+00  4.896474e-01 3.036382e-02 0.000000e+00  0.000000e+00 0.000000e+00 0.000000e+00  1.025998e+00 5.315056e-02 0.000000e+00  6.562500e-01 0.000000e+00 0.000000e+00  1.932860e+00 2.131558e-01 0.000000e+00  1.326735e+00 4.892843e-02 0.000000e+00  1.507594e+00 1.887313e-03 0.000000e+00  1.157685e+00 1.280605e-01 0.000000e+00  1.273450e+00 5.497605e-02 0.000000e+00  5.562259e-01 1.728551e-01 0.000000e+00  -4.851254e-03 2.567712e-01 0.000000e+00  1.333354e+00 -5.232199e-03 0.000000e+00  1.927538e+00 4.013041e-01 0.000000e+00  1.236525e+00 1.397816e-01 0.000000e+00  1.481335e+00 -2.298546e-01 0.000000e+00  1.629995e+00 -1.423356e-01 0.000000e+00  1.622913e+00 -3.189468e-01 0.000000e+00  8.415661e-01 -4.301439e-02 0.000000e+00  5.485060e-01 4.590490e-03 0.000000e+00  1.187041e+00 2.606033e-03 0.000000e+00  1.117219e+00 -1.521707e-01 0.000000e+00  1.120464e+00 -4.766123e-01 0.000000e+00  1.126080e-01 -6.514067e-01 0.000000e+00  7.937647e-01 -4.581614e-01 0.000000e+00  1.576375e+00 -1.956813e-01 0.000000e+00  1.326900e+00 -9.891585e-02 0.000000e+00  1.528734e+00 -9.571165e-03 0.000000e+00  1.473287e+00 2.266254e-01 0.000000e+00  1.541169e+00 2.391642e-01 0.000000e+00  1.445547e+00 1.384465e-01 0.000000e+00  1.352731e+00 2.113626e-01 0.000000e+00  1.419986e+00 1.728700e-01 0.000000e+00  1.557653e+00 3.909156e-01 0.000000e+00  1.607064e+00 5.224787e-01 0.000000e+00  1.228254e+00 1.672708e-01 0.000000e+00  1.996424e+00 -1.661433e-01 0.000000e+00  1.992740e+00 -3.443734e-01 0.000000e+00  8.496075e-01 7.834149e-01 0.000000e+00  6.358127e-01 5.476206e-01 0.000000e+00  -7.071068e-01 -7.071068e-01 0.000000e+00  4.327697e-02 1.467696e-01 0.000000e+00  -3.292546e-02 1.330978e-01 0.000000e+00  2.588197e-01 9.659256e-01 0.000000e+00  -4.159102e-02 2.746722e-01 0.000000e+00  1.367912e+00 1.020272e-01 0.000000e+00  1.513979e+00 3.044467e-01 0.000000e+00  1.630359e+00 2.867494e-01 0.000000e+00  1.197097e+00 -1.868859e-01 0.000000e+00  1.260069e+00 -2.535744e-01 0.000000e+00  1.645535e+00 -3.915480e-01 0.000000e+00  9.476554e-01 -9.617180e-02 0.000000e+00  1.301210e+00 -1.331963e-01 0.000000e+00  3.710072e-01 -1.417668e-02 0.000000e+00  3.619539e-01 -2.920445e-03 0.000000e+00  0.000000e+00 0.000000e+00 0.000000e+00  1.417090e+00 5.321201e-02 0.000000e+00  1.338391e+00 2.522569e-02 0.000000e+00  1.620303e+00 -4.325855e-02 0.000000e+00  9.866498e-01 1.408032e-02 0.000000e+00  1.266859e+00 1.408255e-02 0.000000e+00  3.878464e-01 -8.377930e-03 0.000000e+00  4.839465e-01 7.432720e-03 0.000000e+00  4.859317e-01 -1.112613e-02 0.000000e+00  0.000000e+00 0.000000e+00 0.000000e+00  1.417202e+00 -4.383599e-02 0.000000e+00  1.664659e+00 -1.919457e-01 0.000000e+00  9.863409e-01 3.279689e-02 0.000000e+00  1.396590e+00 1.372549e-01 0.000000e+00  5.242797e-01 1.728480e-02 0.000000e+00  3.642411e-01 -2.915383e-02 0.000000e+00  0.000000e+00 0.000000e+00 0.000000e+00  1.006516e+00 -8.496161e-02 0.000000e+00  1.269971e+00 -4.128525e-01 0.000000e+00  1.029625e+00 -1.070091e-01 0.000000e+00  8.667743e-01 -1.159003e-01 0.000000e+00  3.434695e-01 -4.243670e-02 0.000000e+00  4.896694e-01 1.252336e-02 0.000000e+00  0.000000e+00 0.000000e+00 0.000000e+00  1.270874e+00 2.059460e-01 0.000000e+00  1.552982e+00 2.760099e-01 0.000000e+00  8.812926e-01 6.146572e-02 0.000000e+00  1.150617e+00 1.065137e-01 0.000000e+00  4.976688e-01 -5.374114e-03 0.000000e+00  1.576572e+00 5.853435e-02 0.000000e+00  1.543174e+00 1.176752e-01 0.000000e+00  7.270419e-01 2.497672e-02 0.000000e+00  7.670553e-01 2.511529e-02 0.000000e+00  0.000000e+00 0.000000e+00 0.000000e+00  1.336098e+00 1.385286e-02 0.000000e+00  1.616655e+00 -6.064312e-02 0.000000e+00  5.371650e-01 -1.626688e-02 0.000000e+00  5.325298e-01 3.419046e-03 0.000000e+00  0.000000e+00 0.000000e+00 0.000000e+00  9.762292e-01 4.523758e-02 0.000000e+00  1.274976e+00 -1.169527e-01 0.000000e+00  7.289107e-01 -3.789052e-02 0.000000e+00  6.752997e-01 -4.012842e-02 0.000000e+00  0.000000e+00 0.000000e+00 0.000000e+00  1.033204e+00 -8.282004e-02 0.000000e+00  1.447757e+00 -2.475145e-01 0.000000e+00  1.650601e+00 -2.361473e-01 0.000000e+00  1.594929e+00 -3.719807e-01 0.000000e+00  1.383832e+00 3.281124e-02 0.000000e+00  1.363523e+00 -7.302315e-02 0.000000e+00  0.000000e+00 0.000000e+00 0.000000e+00  1.192353e+00 6.771560e-01 0.000000e+00  1.453772e+00 6.243408e-01 0.000000e+00  8.211589e-01 1.745164e-02 0.000000e+00  8.186044e-01 -1.101093e-02 0.000000e+00  0.000000e+00 0.000000e+00 0.000000e+00  1.378777e+00 -9.959410e-02 0.000000e+00  1.677782e+00 -1.837206e-02 0.000000e+00  1.606227e+00 2.467562e-01 0.000000e+00  1.442289e+00 1.199169e-01 0.000000e+00  1.136986e+00 -1.061897e-01 0.000000e+00  9.634379e-01 -5.467886e-02 0.000000e+00  0.000000e+00 0.000000e+00 0.000000e+00  1.642827e+00 -2.014441e-01 0.000000e+00  1.628902e+00 2.232827e-01 0.000000e+00  1.710501e+00 -1.790713e-01 0.000000e+00  1.150439e+00 -2.274862e-01 0.000000e+00  6.905795e-01 1.910733e-02 0.000000e+00  7.384892e-01 3.148199e-02 0.000000e+00  0.000000e+00 0.000000e+00 0.000000e+00  1.260784e+00 1.149936e-01 0.000000e+00  1.461592e+00 3.378220e-01 0.000000e+00  1.391088e+00 1.647143e-01 0.000000e+00  9.112022e-01 9.310626e-03 0.000000e+00  9.133549e-01 -7.645533e-03 0.000000e+00  0.000000e+00 0.000000e+00 0.000000e+00  1.682348e+00 -2.836900e-01 0.000000e+00  1.639935e+00 -4.587514e-01 0.000000e+00  1.584145e+00 -4.205676e-01 0.000000e+00  8.521737e-01 -1.698279e-02 0.000000e+00  7.936999e-01 -2.766928e-02 0.000000e+00  0.000000e+00 0.000000e+00 0.000000e+00  8.619181e-01 -1.485034e-02 0.000000e+00  3.091083e-01 -2.269044e-02 0.000000e+00  0.000000e+00 0.000000e+00 0.000000e+00  9.879118e-01 -5.928400e-02 0.000000e+00  8.962606e-01 -2.462863e-02 0.000000e+00  3.479710e-01 1.117155e-02 0.000000e+00  5.170630e-01 -2.377146e-02 0.000000e+00  0.000000e+00 0.000000e+00 0.000000e+00  1.144245e+00 -7.464356e-02 0.000000e+00  9.156023e-01 -8.292650e-02 0.000000e+00  1.247180e+00 -1.977600e-01 0.000000e+00  5.735889e-01 -3.181651e-02 0.000000e+00  6.139574e-01 -2.014395e-02 0.000000e+00  0.000000e+00 0.000000e+00 0.000000e+00  1.447063e+00 -2.047679e-01 0.000000e+00  1.088966e+00 -7.269055e-02 0.000000e+00  1.531314e+00 -1.021933e-01 0.000000e+00  6.322488e-01 -1.002578e-03 0.000000e+00  6.176006e-01 1.823306e-02 0.000000e+00  0.000000e+00 0.000000e+00 0.000000e+00  1.442608e+00 2.586624e-02 0.000000e+00  1.170819e+00 6.832356e-02 0.000000e+00  6.590589e-01 3.137733e-02 0.000000e+00  8.902325e-01 1.650186e-02 0.000000e+00  8.683439e-01 -4.176988e-03 0.000000e+00  0.000000e+00 0.000000e+00 0.000000e+00  1.616297e+00 -3.102831e-01 0.000000e+00  1.531019e+00 -3.361916e-01 0.000000e+00  1.537860e+00 -1.147995e-01 0.000000e+00  1.088510e+00 1.236977e-02 0.000000e+00  5.586839e-01 2.511975e-02 0.000000e+00  0.000000e+00 0.000000e+00 0.000000e+00  1.039053e+00 9.642521e-02 0.000000e+00  1.367586e+00 1.781245e-01 0.000000e+00  1.443882e+00 -9.993006e-02 0.000000e+00  1.248033e+00 -1.292080e-01 0.000000e+00  0.000000e+00 0.000000e+00 0.000000e+00  1.217966e+00 5.596651e-02 0.000000e+00  1.273099e+00 1.231830e-01 0.000000e+00  0.000000e+00 0.000000e+00 0.000000e+00  8.453311e-01 1.068577e-01 0.000000e+00  8.752768e-01 1.606142e-01 0.000000e+00  1.587457e+00 4.254169e-01 0.000000e+00  1.018807e+00 -9.786238e-02 0.000000e+00  0.000000e+00 0.000000e+00 0.000000e+00  1.418191e+00 -3.701426e-01 0.000000e+00  1.764829e+00 -4.269061e-01 0.000000e+00  5.586084e-01 -1.861444e-01 0.000000e+00  8.747724e-01 -1.062551e-01 0.000000e+00  1.282505e+00 -3.267158e-02 0.000000e+00  1.192377e+00 1.802116e-01 0.000000e+00  1.136413e+00 1.192492e-01 0.000000e+00  0.000000e+00 0.000000e+00 0.000000e+00  1.001191e+00 9.369801e-02 0.000000e+00  1.133330e+00 2.658657e-02 0.000000e+00  0.000000e+00 0.000000e+00 0.000000e+00  -1.520990e-01 2.486050e-01 0.000000e+00  -2.248162e-01 3.950105e-01 0.000000e+00  -2.001460e-01 2.697572e-01 0.000000e+00  -2.732014e-01 2.119849e-01 0.000000e+00  9.888956e-01 -1.843854e-02 0.000000e+00  1.136903e+00 -1.738983e-02 0.000000e+00  7.816387e-01 -4.496800e-02 0.000000e+00  1.604662e+00 -1.567899e-01 0.000000e+00  1.665283e+00 9.650833e-02 0.000000e+00  1.060171e+00 2.551443e-02 0.000000e+00  1.424137e+00 -1.963410e-01 0.000000e+00  6.821558e-01 -3.234732e-02 0.000000e+00  6.286850e-01 -3.254253e-02 0.000000e+00  0.000000e+00 0.000000e+00 0.000000e+00  6.855116e-01 3.787143e-03 0.000000e+00  6.658729e-01 1.181967e-02 0.000000e+00  0.000000e+00 0.000000e+00 0.000000e+00  1.073377e+00 -1.200035e-02 0.000000e+00  4.547860e-01 -2.404508e-02 0.000000e+00  4.772243e-01 -1.511920e-02 0.000000e+00  0.000000e+00 0.000000e+00 0.000000e+00  9.900973e-01 -3.512419e-02 0.000000e+00  6.636929e-01 9.362677e-04 0.000000e+00  8.263775e-01 -7.388900e-02 0.000000e+00  1.754043e+00 4.413879e-01 0.000000e+00  1.230801e+00 2.557700e-01 0.000000e+00  1.867320e+00 3.009312e-01 0.000000e+00  4.590733e-01 -2.239400e-02 0.000000e+00  4.425986e-01 -2.533206e-03 0.000000e+00  0.000000e+00 0.000000e+00 0.000000e+00  1.034749e+00 -8.540751e-02 0.000000e+00  9.236731e-01 7.370306e-03 0.000000e+00  1.575021e+00 2.247388e-01 0.000000e+00  1.133193e+00 1.946018e-01 0.000000e+00  9.513056e-01 -7.513863e-02 0.000000e+00  1.176258e+00 -1.655006e-01 0.000000e+00  1.139493e+00 -1.212628e-01 0.000000e+00  1.099343e+00 -1.674269e-01 0.000000e+00  -1.217057e-01 8.240119e-02 0.000000e+00  -1.364986e-01 3.229804e-01 0.000000e+00  -2.588197e-01 9.659256e-01 0.000000e+00  -2.925946e-01 1.424433e-01 0.000000e+00  1.599859e+00 -3.420291e-01 0.000000e+00  1.413081e+00 -2.727736e-01 0.000000e+00  3.389199e-01 -5.262289e-03 0.000000e+00  3.165031e-01 -1.452169e-02 0.000000e+00  0.000000e+00 0.000000e+00 0.000000e+00  1.253268e+00 1.877169e-01 0.000000e+00  1.310198e+00 1.160943e-02 0.000000e+00  1.602228e+00 1.914632e-01 0.000000e+00  4.054253e-01 6.166625e-02 0.000000e+00  0.000000e+00 0.000000e+00 0.000000e+00  5.692562e-01 9.694628e-02 0.000000e+00  1.458172e+00 -2.229467e-01 0.000000e+00  1.306716e+00 -7.411798e-02 0.000000e+00  1.690808e+00 -1.712609e-01 0.000000e+00  1.001943e+00 2.382885e-01 0.000000e+00  1.821258e+00 4.276711e-01 0.000000e+00  1.568471e+00 3.265870e-01 0.000000e+00  1.058234e+00 1.360358e-01 0.000000e+00  1.746984e+00 6.348577e-02 0.000000e+00  1.574805e+00 -1.984952e-01 0.000000e+00  1.577488e+00 2.927022e-01 0.000000e+00  1.605876e+00 4.650085e-01 0.000000e+00  3.339702e-01 1.378516e-01 0.000000e+00  -1.193385e-01 2.228991e-01 0.000000e+00  -7.071068e-01 7.071068e-01 0.000000e+00  1.510860e+00 2.225396e-01 0.000000e+00  1.749455e+00 2.095193e-01 0.000000e+00  6.116693e-01 9.840829e-03 0.000000e+00  6.249075e-01 6.766573e-03 0.000000e+00  0.000000e+00 0.000000e+00 0.000000e+00  1.272296e+00 -3.663549e-02 0.000000e+00  8.192456e-01 -1.905303e-02 0.000000e+00  1.118569e+00 8.125249e-02 0.000000e+00  1.437628e+00 1.503528e-01 0.000000e+00  9.315288e-01 -3.057036e-02 0.000000e+00  1.091577e+00 1.449851e-01 0.000000e+00  3.526224e-01 1.606614e-02 0.000000e+00  3.787281e-01 1.193616e-02 0.000000e+00  0.000000e+00 0.000000e+00 0.000000e+00  7.972568e-01 2.972241e-04 0.000000e+00  9.674506e-01 3.288830e-02 0.000000e+00  8.990508e-01 6.484984e-02 0.000000e+00  9.047799e-01 3.062166e-02 0.000000e+00  1.486134e+00 2.052393e-01 0.000000e+00  9.670257e-01 1.107278e-01 0.000000e+00  7.797487e-01 9.262946e-02 0.000000e+00  0.000000e+00 0.000000e+00 0.000000e+00  1.456509e+00 2.207350e-01 0.000000e+00  9.185767e-01 1.140293e-01 0.000000e+00  1.682777e+00 2.954967e-01 0.000000e+00  1.794737e+00 2.707531e-01 0.000000e+00  1.995414e+00 3.940730e-01 0.000000e+00  1.877835e+00 2.759210e-01 0.000000e+00  2.281639e+00 1.395415e-01 0.000000e+00  2.603652e+00 -6.411203e-02 0.000000e+00  1.585612e+00 5.923392e-01 0.000000e+00  4.510794e-01 -2.695363e-02 0.000000e+00  0.000000e+00 0.000000e+00 0.000000e+00  5.006379e-01 -3.629830e-02 0.000000e+00  1.813271e+00 1.608402e-02 0.000000e+00  4.661083e-01 -8.606485e-03 0.000000e+00  0.000000e+00 0.000000e+00 0.000000e+00  1.189554e+00 3.536009e-03 0.000000e+00  1.647416e+00 -3.177843e-01 0.000000e+00  1.462695e+00 -5.707127e-03 0.000000e+00  1.406250e+00 0.000000e+00 0.000000e+00  6.342277e-01 2.105478e-01 0.000000e+00  6.600662e-01 2.371540e-01 0.000000e+00  7.071068e-01 7.071068e-01 0.000000e+00  1.143633e+00 3.261243e-01 0.000000e+00  9.505487e-01 -6.523339e-01 0.000000e+00  8.664578e-01 -4.384921e-01 0.000000e+00  2.588197e-01 -9.659256e-01 0.000000e+00  1.286146e+00 -8.353578e-01 0.000000e+00  1.529760e+00 -1.406851e+00 0.000000e+00  1.470339e+00 -1.355772e-01 0.000000e+00  1.173882e+00 5.437583e-01 0.000000e+00  1.213840e+00 2.702208e-01 0.000000e+00  2.761238e-01 2.331525e-01 0.000000e+00  -3.356014e-01 2.314534e-01 0.000000e+00  1.537272e+00 4.276386e-01 0.000000e+00  7.832508e-01 -1.418337e-01 0.000000e+00  6.707879e-01 -6.998305e-02 0.000000e+00  0.000000e+00 0.000000e+00 0.000000e+00  1.112371e+00 -1.063990e-01 0.000000e+00  6.562500e-01 0.000000e+00 0.000000e+00  -2.311511e-01 -3.346175e-01 0.000000e+00  9.060732e-01 1.171111e-02 0.000000e+00  1.720059e+00 2.167874e-01 0.000000e+00  1.058035e+00 2.156506e-01 0.000000e+00  -5.290749e-01 1.602534e-01 0.000000e+00  1.178566e+00 -2.523337e-01 0.000000e+00  1.396294e+00 -1.272926e-01 0.000000e+00  1.406250e+00 0.000000e+00 0.000000e+00  1.412146e+00 -5.331836e-01 0.000000e+00  1.569640e+00 -4.189219e-01 0.000000e+00  1.337310e+00 -3.778203e-01 0.000000e+00  2.040199e+00 -1.302355e+00 0.000000e+00  7.071068e-01 -7.071068e-01 0.000000e+00  1.779911e+00 3.648541e-01 0.000000e+00  -4.640694e-01 -1.562434e-02 0.000000e+00  7.2