<?xml version="1.0"?>
<VTKFile type="UnstructuredGrid"  version="0.1"  >
<UnstructuredGrid>
<Piece  NumberOfPoints="525" NumberOfCells="924">
<Points>
<DataArray  type="Float32"  NumberOfComponents="3"  format="ascii">0 0 0  2.2 0 0  2.2 0.41 0  0 0.41 0  0.15 0.2 0  0.25 0.2 0  0.2 0.15 0  0.2 0.25 0  0.104762 0 0  0.209524 0 0  0.314286 0 0  0.419048 0 0  0.52381 0 0  0.628571 0 0  0.733333 0 0  0.838095 0 0  0.942857 0 0  1.04762 0 0  1.15238 0 0  1.25714 0 0  1.3619 0 0  1.46667 0 0  1.57143 0 0  1.67619 0 0  1.78095 0 0  1.88571 0 0  1.99048 0 0  2.09524 0 0  2.2 0.1025 0  2.2 0.205 0  2.2 0.3075 0  2.1 0.41 0  2 0.41 0  1.9 0.41 0  1.8 0.41 0  1.7 0.41 0  1.6 0.41 0  1.5 0.41 0  1.4 0.41 0  1.3 0.41 0  1.2 0.41 0  1.1 0.41 0  1 0.41 0  0.9 0.41 0  0.8 0.41 0  0.7 0.41 0  0.6 0.41 0  0.5 0.41 0  0.4 0.41 0  0.3 0.41 0  0.2 0.41 0  0.1 0.41 0  0 0.3075 0  0 0.205 0  0 0.1025 0  0.156699 0.225 0  0.175 0.243301 0  0.225 0.243301 0  0.243301 0.225 0  0.243301 0.175 0  0.225 0.156699 0  0.175 0.156699 0  0.156699 0.175 0  0.352033 0.262216 0  1.04579 0.252253 0  1.24065 0.243419 0  0.985775 0.171509 0  1.30324 0.187395 0  0.890988 0.190768 0  1.39085 0.202767 0  0.801464 0.204685 0  1.49904 0.204666 0  0.704267 0.202289 0  1.60238 0.204951 0  0.487789 0.19191 0  1.72935 0.219637 0  1.83335 0.187427 0  2.03359 0.193642 0  0.314663 0.307348 0  0.249039 0.333583 0  2.12147 0.253405 0  2.06373 0.0836837 0  0.0734726 0.267055 0  0.143989 0.0677174 0  0.0613613 0.33781 0  0.299628 0.236829 0  0.527114 0.295386 0  0.262384 0.26549 0  0.275777 0.18341 0  1.74578 0.330928 0  1.84001 0.302448 0  1.64998 0.313838 0  0.648421 0.302367 0  1.54544 0.308508 0  0.755686 0.306156 0  1.42668 0.314809 0  0.870524 0.298596 0  1.22553 0.112785 0  1.05603 0.147372 0  0.969346 0.329867 0  1.32527 0.276284 0  2.02914 0.29511 0  1.88168 0.119486 0  1.79545 0.104842 0  1.35688 0.0892539 0  1.69041 0.105324 0  0.914199 0.0955566 0  1.58234 0.102923 0  0.61843 0.10815 0  1.47999 0.101161 0  0.725217 0.104273 0  0.821727 0.102306 0  1.96725 0.105778 0  0.418624 0.241547 0  0.135226 0.239087 0  1.14921 0.314841 0  0.404508 0.333259 0  0.590155 0.206269 0  2.12554 0.150731 0  1.93166 0.22436 0  0.104689 0.190046 0  0.267856 0.0744753 0  0.269368 0.221581 0  0.434446 0.114927 0  1.0089 0.0793381 0  0.953023 0.246698 0  1.25853 0.33355 0  1.05268 0.340828 0  2.1369 0.067383 0  0.522398 0.112537 0  1.3421 0.348929 0  0.215186 0.289473 0  0.203197 0.335348 0  1.13984 0.190728 0  1.93813 0.330504 0  1.10505 0.0883705 0  0.341988 0.0824728 0  0.253113 0.138035 0  0.291932 0.131907 0  0.203713 0.102439 0  0.150375 0.134668 0  0.151494 0.309119 0  0.354384 0.17896 0  0.0685367 0.100776 0  0.424128 0.180088 0  0.474925 0.0568661 0  2.10843 0.347669 0  2.16073 0.280452 0  2.16073 0.229202 0  2.2 0.25625 0  2.07949 0.0418418 0  2.02711 0.0418418 0  2.04286 0 0  0.176756 0.0338587 0  0.124375 0.0338587 0  0.157143 0 0  0.0806807 0.373905 0  0.0306807 0.373905 0  0.05 0.41 0  0.0306807 0.322655 0  0 0.35875 0  0.281851 0.320466 0  0.27452 0.371791 0  0.307331 0.358674 0  0.067417 0.302432 0  0.0367363 0.287277 0  0.307146 0.272089 0  0.325831 0.249523 0  0.333348 0.284782 0  0.255711 0.299536 0  0.288524 0.286419 0  2.07531 0.274257 0  2.03137 0.244376 0  2.07753 0.223523 0  2.01549 0.0947309 0  1.97886 0.052889 0  2.00042 0.14971 0  2.04866 0.138663 0  0.472869 0.268466 0  0.453206 0.216728 0  0.507451 0.243648 0  2.16277 0.177866 0  2.16277 0.126615 0  2.2 0.15375 0  1.90667 0.171923 0  1.88251 0.205894 0  1.85752 0.153456 0  1.88583 0.263404 0  1.83668 0.244938 0  0.604293 0.15721 0  0.647211 0.204279 0  0.661349 0.15522 0  0.359586 0.320304 0  0.37827 0.297737 0  0.155113 0.241194 0  0.145962 0.232044 0  0.164645 0.235355 0  0.259539 0.179205 0  0.262888 0.191705 0  0.248296 0.187059 0  0.281006 0.251159 0  1.0209 0.15944 0  1.05091 0.199813 0  1.01578 0.211881 0  1.26438 0.15009 0  1.23309 0.178102 0  1.27195 0.215407 0  1.29121 0.101019 0  1.33006 0.138324 0  0.928528 0.0477783 0  0.876147 0.0477783 0  0.890476 0 0  0.902594 0.143162 0  0.949987 0.133533 0  0.938381 0.181138 0  0.867963 0.0989313 0  0.856357 0.146537 0  0.829911 0.051153 0  1.41178 0.0446269 0  1.35939 0.0446269 0  1.41429 0 0  1.37386 0.14601 0  1.34705 0.195081 0  1.41844 0.0952074 0  1.43542 0.151964 0  1.47333 0.0505805 0  0.77753 0.051153 0  0.785714 0 0  0.811595 0.153496 0  0.846226 0.197726 0  0.773472 0.10329 0  0.76334 0.154479 0  0.729275 0.0521365 0  1.52571 0.0505805 0  1.51905 0 0  1.48951 0.152913 0  1.44494 0.203716 0  1.53117 0.102042 0  1.54069 0.153795 0  1.57689 0.0514615 0  1.9804 0.259735 0  1.98262 0.209001 0  1.82001 0.356224 0  1.87 0.356224 0  1.85 0.41 0  1.78468 0.261043 0  1.78135 0.203532 0  1.72289 0.370464 0  1.77289 0.370464 0  1.75 0.41 0  1.7929 0.316688 0  1.73757 0.275282 0  1.62499 0.361919 0  1.67499 0.361919 0  1.65 0.41 0  1.69788 0.322383 0  1.68966 0.266738 0  1.62618 0.259394 0  1.66586 0.212294 0  0.624211 0.356183 0  0.674211 0.356183 0  0.65 0.41 0  0.619288 0.254318 0  0.676344 0.252328 0  1.52272 0.359254 0  1.57272 0.359254 0  1.55 0.41 0  1.59771 0.311173 0  1.57391 0.256729 0  1.52224 0.256587 0  1.55071 0.204809 0  0.727843 0.358078 0  0.777843 0.358078 0  0.75 0.41 0  0.702053 0.304261 0  0.729977 0.254223 0  0.778575 0.25542 0  0.752865 0.203487 0  1.41334 0.362405 0  1.46334 0.362405 0  1.45 0.41 0  1.48606 0.311659 0  1.46286 0.259738 0  1.40876 0.258788 0  0.835262 0.354298 0  0.885262 0.354298 0  0.85 0.41 0  0.813105 0.302376 0  0.835994 0.25164 0  0.880756 0.244682 0  0.934673 0.369934 0  0.984673 0.369934 0  0.95 0.41 0  0.919935 0.314231 0  0.676894 0.0521365 0  0.680952 0 0  0.714742 0.153281 0  0.671824 0.106212 0  0.623501 0.054075 0  1.62927 0.0514615 0  1.62381 0 0  1.59236 0.153937 0  1.63638 0.104124 0  1.6464 0.155137 0  1.6833 0.052662 0  1.73568 0.052662 0  1.72857 0 0  1.70988 0.16248 0  1.74293 0.105083 0  1.7624 0.16224 0  1.7882 0.052421 0  1.84058 0.052421 0  1.83333 0 0  1.8144 0.146135 0  1.83857 0.112164 0  1.88369 0.059743 0  1.12461 0.36242 0  1.17461 0.36242 0  1.15 0.41 0  1.31425 0.231839 0  1.28296 0.259852 0  1.35806 0.239526 0  1.37597 0.295546 0  1.92648 0.052889 0  1.9381 0 0  1.92447 0.112632 0  1.94945 0.165069 0  0.352254 0.37163 0  0.402254 0.37163 0  0.35 0.41 0  0.513557 0.352693 0  0.563557 0.352693 0  0.55 0.41 0  0.587767 0.298876 0  0.558634 0.250827 0  0.538972 0.19909 0  0.452254 0.37163 0  0.45 0.41 0  0.465811 0.314323 0  0.411566 0.287403 0  0.385328 0.251881 0  0.119958 0.214566 0  0.0890808 0.22855 0  0.104349 0.253071 0  0.22452 0.371791 0  0.25 0.41 0  0.291071 0.0372376 0  0.23869 0.0372376 0  0.261905 0 0  0.265876 0.243536 0  0.256335 0.223291 0  0.252842 0.245245 0  0.284498 0.229205 0  1.03246 0.113355 0  0.997337 0.125424 0  0.961549 0.0874474 0  0.922006 0.218733 0  0.969399 0.209103 0  0.961184 0.288282 0  0.911774 0.272647 0  1.22926 0.371775 0  1.27927 0.371775 0  1.25 0.41 0  1.02634 0.375414 0  1.07634 0.375414 0  1.05 0.41 0  1.01101 0.335348 0  2.11607 0.0336915 0  2.16845 0.0336915 0  2.14762 0 0  2.16845 0.0849415 0  2.2 0.05125 0  2.10032 0.0755333 0  0.556277 0.159403 0  0.570414 0.110343 0  0.505093 0.152224 0  1.32105 0.379464 0  1.37105 0.379464 0  1.35 0.41 0  1.33369 0.312607 0  1.38439 0.331869 0  0.999406 0.249476 0  1.00757 0.29106 0  1.30031 0.34124 0  1.2919 0.304917 0  2.13122 0.109057 0  2.09464 0.117207 0  0.272572 0.202495 0  0.259684 0.21079 0  0.248296 0.212941 0  0.287702 0.21012 0  2.1235 0.202068 0  2.07956 0.172187 0  1.02826 0.039669 0  0.975878 0.039669 0  0.995238 0 0  1.04923 0.29654 0  1.10095 0.327835 0  1.0975 0.283547 0  0.57112 0.054075 0  0.576191 0 0  0.523104 0.0562685 0  1.24959 0.288485 0  1.20387 0.324195 0  1.19493 0.27913 0  0.238785 0.277481 0  0.232112 0.311528 0  0.226118 0.334465 0  0.201599 0.372674 0  1.14453 0.252784 0  1.19024 0.217074 0  1.09281 0.221491 0  0.209191 0.31241 0  0.220093 0.266387 0  0.243692 0.254395 0  0.235355 0.235355 0  0.478422 0.113732 0  0.461117 0.153419 0  1.91906 0.370252 0  1.96907 0.370252 0  1.95 0.41 0  1.98364 0.312807 0  2.01457 0.352555 0  1.88907 0.316476 0  1.9349 0.277432 0  1.18268 0.151757 0  1.09794 0.16905 0  1.12872 0.0441853 0  1.07634 0.0441853 0  1.1 0 0  1.05697 0.0838543 0  1.08054 0.117871 0  1.12244 0.139549 0  1.16529 0.100578 0  0.304922 0.078474 0  0.328137 0.0412364 0  0.380518 0.0412364 0  0.366667 0 0  0.388217 0.0986999 0  0.426747 0.0574635 0  0.31696 0.10719 0  0.279894 0.103191 0  0.272523 0.134971 0  0.260485 0.106255 0  0.228413 0.120237 0  0.214357 0.129569 0  0.239057 0.147367 0  1.30701 0.0446269 0  1.30952 0 0  1.24133 0.0563925 0  0.235785 0.0884571 0  1.18895 0.0563925 0  1.20476 0 0  0.206618 0.0512195 0  0.173851 0.0850782 0  0.0367363 0.236028 0  0 0.25625 0  0.264445 0.160722 0  0.248207 0.156517 0  0.235355 0.164645 0  0.283855 0.157658 0  0.130694 0.182523 0  0.127344 0.195023 0  0.151704 0.187059 0  0.127532 0.162357 0  0.153537 0.154834 0  0.0523445 0.197523 0  0.14336 0.274103 0  0.112483 0.288087 0  0.31508 0.181185 0  0.327006 0.207895 0  0.323158 0.155434 0  0.0866493 0.050388 0  0.0342684 0.050388 0  0.052381 0 0  0.0342684 0.101638 0  0 0.05125 0  0.421376 0.210817 0  0.455958 0.185999 0  0.429287 0.147508 0  0.106428 0.323464 0  0.353208 0.220588 0  0.106263 0.0842467 0  0.0342684 0.152888 0  0 0.15375 0  0.109456 0.117722 0  0.147182 0.101193 0  0.0866129 0.145411 0  0.162687 0.145684 0  0.164645 0.164645 0  0.348186 0.130716 0  0.386504 0.210254 0  0.389256 0.179524 0  0.394415 0.146944 0  0.125747 0.359559 0  0.175747 0.359559 0  0.15 0.41 0  0.177345 0.322233 0  0.142613 0.219544 0  0.151704 0.212941 0  0.499367 0.0284331 0  0.446986 0.0284331 0  0.471429 0 0  0.498661 0.0847016 0  0.454685 0.0858966 0  0.201856 0.126219 0  0.212941 0.151704 0  0.18334 0.299296 0  0.175187 0.142334 0  0.187059 0.151704 0  0.177044 0.118554 0  2.15421 0.327585 0  2.15421 0.378834 0  2.2 0.35875 0  2.10421 0.378834 0  2.15 0.41 0  2.05422 0.378
[...]
<PointData  Vectors="u"> 
<DataArray  type="Float32"  Name="u"  NumberOfComponents="3" format="ascii">0.000000e+00 0.000000e+00 0.000000e+00  0.000000e+00 0.000000e+00 0.000000e+00  0.000000e+00 0.000000e+00 0.000000e+00  0.000000e+00 0.000000e+00 0.000000e+00  0.000000e+00 -1.000000e+00 0.000000e+00  0.000000e+00 1.000000e+00 0.000000e+00  1.000000e+00 0.000000e+00 0.000000e+00  -1.000000e+00 0.000000e+00 0.000000e+00  0.000000e+00 0.000000e+00 0.000000e+00  0.000000e+00 0.000000e+00 0.000000e+00  0.000000e+00 0.000000e+00 0.000000e+00  0.000000e+00 0.000000e+00 0.000000e+00  0.000000e+00 0.000000e+00 0.000000e+00  0.000000e+00 0.000000e+00 0.000000e+00  0.000000e+00 0.000000e+00 0.000000e+00  0.000000e+00 0.000000e+00 0.000000e+00  0.000000e+00 0.000000e+00 0.000000e+00  0.000000e+00 0.000000e+00 0.000000e+00  0.000000e+00 0.000000e+00 0.000000e+00  0.000000e+00 0.000000e+00 0.000000e+00  0.000000e+00 0.000000e+00 0.000000e+00  0.000000e+00 0.000000e+00 0.000000e+00  0.000000e+00 0.000000e+00 0.000000e+00  0.000000e+00 0.000000e+00 0.000000e+00  0.000000e+00 0.000000e+00 0.000000e+00  0.000000e+00 0.000000e+00 0.000000e+00  0.000000e+00 0.000000e+00 0.000000e+00  0.000000e+00 0.000000e+00 0.000000e+00  1.071699e+00 -1.370418e-01 0.000000e+00  1.578909e+00 -3.672259e-01 0.000000e+00  1.086050e+00 -1.083097e-01 0.000000e+00  0.000000e+00 0.000000e+00 0.000000e+00  0.000000e+00 0.000000e+00 0.000000e+00  0.000000e+00 0.000000e+00 0.000000e+00  0.000000e+00 0.000000e+00 0.000000e+00  0.000000e+00 0.000000e+00 0.000000e+00  0.000000e+00 0.000000e+00 0.000000e+00  0.000000e+00 0.000000e+00 0.000000e+00  0.000000e+00 0.000000e+00 0.000000e+00  0.000000e+00 0.000000e+00 0.000000e+00  0.000000e+00 0.000000e+00 0.000000e+00  0.000000e+00 0.000000e+00 0.000000e+00  0.000000e+00 0.000000e+00 0.000000e+00  0.000000e+00 0.000000e+00 0.000000e+00  0.000000e+00 0.000000e+00 0.000000e+00  0.000000e+00 0.000000e+00 0.000000e+00  0.000000e+00 0.000000e+00 0.000000e+00  0.000000e+00 0.000000e+00 0.000000e+00  0.000000e+00 0.000000e+00 0.000000e+00  0.000000e+00 0.000000e+00 0.000000e+00  0.000000e+00 0.000000e+00 0.000000e+00  0.000000e+00 0.000000e+00 0.000000e+00  1.125000e+00 0.000000e+00 0.000000e+00  1.500000e+00 0.000000e+00 0.000000e+00  1.125000e+00 0.000000e+00 0.000000e+00  -5.000023e-01 -8.660241e-01 0.000000e+00  -8.660241e-01 -5.000023e-01 0.000000e+00  -8.660241e-01 5.000023e-01 0.000000e+00  -5.000023e-01 8.660241e-01 0.000000e+00  5.000023e-01 8.660241e-01 0.000000e+00  8.660241e-01 5.000023e-01 0.000000e+00  8.660241e-01 -5.000023e-01 0.000000e+00  5.000023e-01 -8.660241e-01 0.000000e+00  1.169498e-02 2.479294e-01 0.000000e+00  1.541613e+00 -8.932215e-02 0.000000e+00  1.698922e+00 6.843186e-02 0.000000e+00  1.417828e+00 -2.088018e-01 0.000000e+00  1.320877e+00 -1.755256e-01 0.000000e+00  1.115927e+00 -3.244527e-01 0.000000e+00  1.636585e+00 -3.669954e-01 0.000000e+00  1.409594e+00 1.250763e-01 0.000000e+00  1.624964e+00 6.509049e-02 0.000000e+00  1.757162e+00 5.013407e-01 0.000000e+00  1.469861e+00 3.034136e-01 0.000000e+00  4.650389e-01 -4.095670e-02 0.000000e+00  1.599456e+00 -2.794909e-01 0.000000e+00  1.596196e+00 -2.073739e-01 0.000000e+00  1.538550e+00 2.400426e-01 0.000000e+00  1.835244e+00 1.408952e-01 0.000000e+00  1.618487e+00 2.789832e-01 0.000000e+00  1.601833e+00 -1.139056e-01 0.000000e+00  7.939132e-01 1.048873e-02 0.000000e+00  1.279450e+00 6.665215e-02 0.000000e+00  1.244825e+00 -2.342735e-01 0.000000e+00  8.959166e-01 8.184373e-02 0.000000e+00  -3.056733e-01 -4.538987e-02 0.000000e+00  1.635535e+00 -4.758687e-01 0.000000e+00  1.366991e-01 1.967910e-02 0.000000e+00  1.343230e-01 -1.262186e-01 0.000000e+00  1.040180e+00 -8.965991e-02 0.000000e+00  1.078384e+00 -5.221243e-02 0.000000e+00  1.338807e+00 -1.541694e-02 0.000000e+00  7.534455e-01 7.757010e-02 0.000000e+00  1.143582e+00 1.404557e-01 0.000000e+00  1.245286e+00 -3.318701e-02 0.000000e+00  1.027115e+00 -9.005071e-02 0.000000e+00  1.777370e+00 -2.620160e-01 0.000000e+00  9.699107e-01 7.640726e-02 0.000000e+00  1.438262e+00 -2.443898e-02 0.000000e+00  1.028964e+00 -4.239918e-02 0.000000e+00  1.601941e+00 -2.430311e-01 0.000000e+00  1.307225e+00 8.602265e-02 0.000000e+00  1.249730e+00 -2.621301e-02 0.000000e+00  1.028649e+00 -1.038136e-01 0.000000e+00  8.144113e-01 -7.267563e-02 0.000000e+00  8.938980e-01 -2.887378e-02 0.000000e+00  9.363713e-01 -8.129801e-03 0.000000e+00  9.681200e-01 8.947185e-02 0.000000e+00  1.226580e+00 1.788574e-01 0.000000e+00  1.057685e+00 -1.046628e-02 0.000000e+00  8.784797e-01 9.610933e-03 0.000000e+00  9.339087e-01 -1.124216e-01 0.000000e+00  1.095496e+00 8.106830e-02 0.000000e+00  2.108872e-01 3.019065e-01 0.000000e+00  8.562410e-01 3.209091e-01 0.000000e+00  1.174477e+00 7.493883e-02 0.000000e+00  1.906420e+00 -1.292306e-01 0.000000e+00  1.200864e+00 -6.521947e-02 0.000000e+00  1.214213e+00 -1.137703e-01 0.000000e+00  1.520564e+00 1.153022e-01 0.000000e+00  1.205737e+00 -3.265712e-01 0.000000e+00  1.505742e+00 1.490382e-01 0.000000e+00  -1.263641e-01 -6.976211e-02 0.000000e+00  1.376637e+00 2.256475e-01 0.000000e+00  7.104051e-01 -4.780253e-02 0.000000e+00  1.649940e+00 -4.516862e-01 0.000000e+00  1.216572e+00 -2.627336e-02 0.000000e+00  9.777544e-01 -2.399834e-02 0.000000e+00  7.152584e-01 -5.787220e-02 0.000000e+00  1.349784e+00 6.745244e-02 0.000000e+00  9.338655e-01 -7.087545e-02 0.000000e+00  1.757414e+00 5.763920e-01 0.000000e+00  1.409748e+00 3.084832e-01 0.000000e+00  1.470876e+00 2.552470e-01 0.000000e+00  9.382940e-01 5.071263e-02 0.000000e+00  8.508941e-01 -2.256156e-02 0.000000e+00  1.392364e+00 2.614491e-01 0.000000e+00  2.114957e+00 4.597298e-01 0.000000e+00  2.027983e+00 4.056627e-01 0.000000e+00  2.057694e+00 -1.832912e-01 0.000000e+00  1.816651e+00 -1.026781e+00 0.000000e+00  1.272537e+00 4.385056e-01 0.000000e+00  1.141895e+00 4.857822e-01 0.000000e+00  1.170325e+00 -2.384296e-01 0.000000e+00  1.013680e+00 4.437359e-01 0.000000e+00  7.056106e-01 4.935954e-02 0.000000e+00  8.548539e-01 -2.180340e-02 0.000000e+00  1.430052e+00 -1.899661e-01 0.000000e+00  1.610266e+00 -2.751564e-01 0.000000e+00  1.467961e+00 -2.949287e-01 0.000000e+00  4.662631e-01 -5.301846e-03 0.000000e+00  4.721666e-01 1.784199e-02 0.000000e+00  0.000000e+00 0.000000e+00 0.000000e+00  9.505582e-01 -3.778378e-02 0.000000e+00  7.545937e-01 -9.541205e-02 0.000000e+00  0.000000e+00 0.000000e+00 0.000000e+00  5.506761e-01 6.950848e-02 0.000000e+00  4.894219e-01 2.856508e-02 0.000000e+00  0.000000e+00 0.000000e+00 0.000000e+00  1.026113e+00 5.019577e-02 0.000000e+00  6.562500e-01 0.000000e+00 0.000000e+00  1.850476e+00 2.380407e-01 0.000000e+00  1.299612e+00 6.805905e-02 0.000000e+00  1.481726e+00 6.777041e-02 0.000000e+00  1.155171e+00 1.138021e-01 0.000000e+00  1.273815e+00 4.737608e-02 0.000000e+00  2.769831e-01 5.571667e-02 0.000000e+00  -2.611727e-01 9.182655e-02 0.000000e+00  8.629427e-01 5.227156e-02 0.000000e+00  1.841352e+00 3.594242e-01 0.000000e+00  1.059868e+00 5.521561e-02 0.000000e+00  1.502846e+00 3.316478e-02 0.000000e+00  1.511025e+00 2.220498e-01 0.000000e+00  1.581732e+00 1.032281e-01 0.000000e+00  9.247430e-01 6.313002e-02 0.000000e+00  6.039137e-01 2.657920e-02 0.000000e+00  1.375265e+00 1.801885e-01 0.000000e+00  1.190916e+00 1.128372e-01 0.000000e+00  1.580750e+00 -3.700084e-01 0.000000e+00  -3.583651e-02 -2.173368e-02 0.000000e+00  1.073188e+00 -4.438897e-01 0.000000e+00  1.443369e+00 -2.755802e-01 0.000000e+00  1.104197e+00 -1.858427e-01 0.000000e+00  1.361324e+00 -2.961612e-01 0.000000e+00  1.575027e+00 1.792271e-02 0.000000e+00  1.614803e+00 -7.070739e-02 0.000000e+00  1.467500e+00 -1.065536e-01 0.000000e+00  1.302476e+00 -1.342247e-03 0.000000e+00  1.501356e+00 -1.730205e-01 0.000000e+00  1.783767e+00 2.161051e-01 0.000000e+00  1.713667e+00 3.464485e-01 0.000000e+00  1.662288e+00 3.190920e-01 0.000000e+00  1.986273e+00 3.523384e-02 0.000000e+00  1.613497e+00 -2.428596e-02 0.000000e+00  8.300641e-01 7.473324e-01 0.000000e+00  6.187270e-01 5.049791e-01 0.000000e+00  -7.071068e-01 -7.071068e-01 0.000000e+00  4.092825e-02 9.419450e-02 0.000000e+00  1.438196e-02 1.113656e-02 0.000000e+00  2.588197e-01 9.659256e-01 0.000000e+00  -1.234070e-01 2.167117e-02 0.000000e+00  1.495752e+00 -8.301610e-02 0.000000e+00  1.638573e+00 -4.089706e-02 0.000000e+00  1.614211e+00 -2.129986e-01 0.000000e+00  9.543388e-01 2.070494e-02 0.000000e+00  1.133930e+00 9.968160e-02 0.000000e+00  1.537611e+00 -6.831519e-02 0.000000e+00  8.752717e-01 -1.328349e-02 0.000000e+00  1.064679e+00 -1.164748e-01 0.000000e+00  3.688270e-01 -5.357947e-03 0.000000e+00  3.519492e-01 -1.012931e-02 0.000000e+00  0.000000e+00 0.000000e+00 0.000000e+00  9.918251e-01 -3.727621e-02 0.000000e+00  1.213176e+00 6.807967e-03 0.000000e+00  1.191228e+00 -3.149626e-01 0.000000e+00  9.703706e-01 -6.260618e-02 0.000000e+00  8.433800e-01 -8.795461e-02 0.000000e+00  3.597691e-01 -2.905673e-02 0.000000e+00  4.709595e-01 -2.447004e-02 0.000000e+00  4.372723e-01 -3.011209e-02 0.000000e+00  0.000000e+00 0.000000e+00 0.000000e+00  1.215560e+00 -1.901547e-01 0.000000e+00  1.497030e+00 -3.424650e-01 0.000000e+00  9.551268e-01 -7.904585e-02 0.000000e+00  1.427822e+00 -1.565387e-01 0.000000e+00  5.596463e-01 -4.702778e-03 0.000000e+00  3.111561e-01 -2.512890e-02 0.000000e+00  0.000000e+00 0.000000e+00 0.000000e+00  8.589724e-01 -5.139304e-02 0.000000e+00  1.176010e+00 -1.471426e-01 0.000000e+00  8.814022e-01 -9.655382e-02 0.000000e+00  1.098211e+00 7.041964e-02 0.000000e+00  3.114074e-01 -1.049638e-02 0.000000e+00  5.587620e-01 1.244249e-02 0.000000e+00  0.000000e+00 0.000000e+00 0.000000e+00  1.482791e+00 1.221763e-02 0.000000e+00  1.671648e+00 -2.228782e-01 0.000000e+00  1.045546e+00 6.219815e-02 0.000000e+00  1.425381e+00 1.688657e-01 0.000000e+00  5.412912e-01 1.984150e-02 0.000000e+00  1.357261e+00 2.107505e-01 0.000000e+00  1.555080e+00 2.441954e-01 0.000000e+00  6.915583e-01 -1.892121e-02 0.000000e+00  6.891163e-01 3.374100e-03 0.000000e+00  0.000000e+00 0.000000e+00 0.000000e+00  1.501703e+00 -2.516736e-01 0.000000e+00  1.572040e+00 -3.081895e-01 0.000000e+00  6.087937e-01 -2.928541e-02 0.000000e+00  5.622534e-01 -2.516169e-02 0.000000e+00  0.000000e+00 0.000000e+00 0.000000e+00  1.072657e+00 -9.724824e-02 0.000000e+00  1.537958e+00 -2.055554e-01 0.000000e+00  7.700244e-01 1.184133e-02 0.000000e+00  7.647753e-01 -1.420125e-02 0.000000e+00  0.000000e+00 0.000000e+00 0.000000e+00  1.233626e+00 -7.655686e-02 0.000000e+00  1.644531e+00 -9.624830e-02 0.000000e+00  1.587201e+00 2.103750e-01 0.000000e+00  1.519270e+00 1.207394e-02 0.000000e+00  1.098048e+00 1.399433e-01 0.000000e+00  1.263882e+00 1.409511e-01 0.000000e+00  0.000000e+00 0.000000e+00 0.000000e+00  1.255301e+00 -1.994474e-01 0.000000e+00  1.325799e+00 3.121664e-01 0.000000e+00  7.267783e-01 3.016081e-02 0.000000e+00  7.803008e-01 3.913462e-02 0.000000e+00  0.000000e+00 0.000000e+00 0.000000e+00  1.282256e+00 9.008443e-02 0.000000e+00  1.474397e+00 3.457260e-01 0.000000e+00  1.388985e+00 2.497910e-01 0.000000e+00  1.550954e+00 2.968294e-01 0.000000e+00  1.301797e+00 1.641444e-04 0.000000e+00  1.247429e+00 -5.449716e-02 0.000000e+00  0.000000e+00 0.000000e+00 0.000000e+00  9.027619e-01 1.008699e-01 0.000000e+00  1.468398e+00 5.674295e-01 0.000000e+00  1.579759e+00 4.955249e-01 0.000000e+00  1.572699e+00 3.879926e-01 0.000000e+00  6.762173e-01 -3.168107e-02 0.000000e+00  6.531243e-01 -4.855762e-03 0.000000e+00  0.000000e+00 0.000000e+00 0.000000e+00  1.004743e+00 4.696719e-02 0.000000e+00  1.359217e+00 -6.052646e-02 0.000000e+00  1.448033e+00 -2.963681e-01 0.000000e+00  1.119065e+00 -5.771090e-02 0.000000e+00  9.756524e-01 -2.037687e-02 0.000000e+00  0.000000e+00 0.000000e+00 0.000000e+00  1.661755e+00 -1.678461e-01 0.000000e+00  1.688669e+00 1.227840e-01 0.000000e+00  1.668225e+00 -2.014613e-01 0.000000e+00  7.802811e-01 -1.000739e-02 0.000000e+00  7.747377e-01 -2.946460e-02 0.000000e+00  0.000000e+00 0.000000e+00 0.000000e+00  1.439963e+00 -1.491653e-01 0.000000e+00  3.221399e-01 2.261997e-02 0.000000e+00  0.000000e+00 0.000000e+00 0.000000e+00  1.421921e+00 2.150494e-01 0.000000e+00  1.021311e+00 1.302410e-01 0.000000e+00  4.017511e-01 3.764767e-02 0.000000e+00  5.130615e-01 1.304652e-02 0.000000e+00  0.000000e+00 0.000000e+00 0.000000e+00  1.284260e+00 2.017284e-01 0.000000e+00  8.935015e-01 5.143900e-02 0.000000e+00  1.175635e+00 7.489175e-02 0.000000e+00  5.237628e-01 -8.866689e-03 0.000000e+00  5.479919e-01 -2.538846e-02 0.000000e+00  0.000000e+00 0.000000e+00 0.000000e+00  1.242546e+00 -1.339533e-01 0.000000e+00  9.499297e-01 -9.340725e-02 0.000000e+00  1.342158e+00 -2.181701e-01 0.000000e+00  5.903147e-01 -2.904296e-02 0.000000e+00  6.291010e-01 -1.792452e-02 0.000000e+00  0.000000e+00 0.000000e+00 0.000000e+00  1.354857e+00 -1.693825e-01 0.000000e+00  1.151206e+00 -8.340299e-02 0.000000e+00  7.144382e-01 -2.430830e-03 0.000000e+00  8.413869e-01 7.158500e-03 0.000000e+00  8.443533e-01 2.444878e-02 0.000000e+00  0.000000e+00 0.000000e+00 0.000000e+00  1.650567e+00 -2.952017e-01 0.000000e+00  1.734669e+00 -1.477082e-01 0.000000e+00  1.645805e+00 -3.806642e-01 0.000000e+00  1.300381e+00 -2.129711e-01 0.000000e+00  6.415858e-01 1.483446e-02 0.000000e+00  0.000000e+00 0.000000e+00 0.000000e+00  1.194137e+00 4.820129e-02 0.000000e+00  1.528840e+00 1.275368e-01 0.000000e+00  1.493812e+00 -3.864292e-02 0.000000e+00  1.467752e+00 -1.193668e-01 0.000000e+00  0.000000e+00 0.000000e+00 0.000000e+00  1.234525e+00 -1.931992e-01 0.000000e+00  1.066600e+00 2.799895e-03 0.000000e+00  0.000000e+00 0.000000e+00 0.000000e+00  1.175968e+00 -1.396329e-01 0.000000e+00  1.179954e+00 -6.703919e-01 0.000000e+00  7.057731e-01 -1.968551e-01 0.000000e+00  1.202296e+00 -1.670470e-01 0.000000e+00  0.000000e+00 0.000000e+00 0.000000e+00  1.891194e+00 -4.337584e-01 0.000000e+00  1.434292e+00 -9.567313e-02 0.000000e+00  -9.122676e-03 4.144289e-01 0.000000e+00  8.754954e-01 -1.451324e-01 0.000000e+00  1.281474e+00 -5.735389e-02 0.000000e+00  1.185674e+00 1.512949e-01 0.000000e+00  1.100375e+00 1.220125e-01 0.000000e+00  0.000000e+00 0.000000e+00 0.000000e+00  1.004513e+00 1.054330e-01 0.000000e+00  1.157053e+00 2.800892e-02 0.000000e+00  0.000000e+00 0.000000e+00 0.000000e+00  -1.492018e-01 1.612754e-02 0.000000e+00  -1.441527e-01 1.597778e-01 0.000000e+00  -1.683226e-01 8.240028e-02 0.000000e+00  -2.427269e-01 -7.826856e-02 0.000000e+00  1.103760e+00 -4.890092e-02 0.000000e+00  1.243494e+00 -6.466297e-03 0.000000e+00  8.085153e-01 -9.699984e-03 0.000000e+00  1.458195e+00 -3.881909e-01 0.000000e+00  1.487300e+00 -3.484359e-01 0.000000e+00  1.463561e+00 -2.693297e-01 0.000000e+00  1.727743e+00 -3.825149e-01 0.000000e+00  7.114715e-01 6.084980e-03 0.000000e+00  7.041007e-01 -6.935280e-03 0.000000e+00  0.000000e+00 0.000000e+00 0.000000e+00  6.729596e-01 -1.932013e-02 0.000000e+00  6.219096e-01 -1.613622e-02 0.000000e+00  0.000000e+00 0.000000e+00 0.000000e+00  9.520906e-01 -3.344494e-02 0.000000e+00  3.942227e-01 -1.651230e-02 0.000000e+00  4.397749e-01 -2.837610e-02 0.000000e+00  0.000000e+00 0.000000e+00 0.000000e+00  8.821189e-01 -9.856324e-02 0.000000e+00  6.515716e-01 -3.626766e-02 0.000000e+00  7.398439e-01 -3.012086e-02 0.000000e+00  1.686965e+00 1.120940e-02 0.000000e+00  1.323394e+00 1.340752e-01 0.000000e+00  1.533081e+00 -1.261990e-02 0.000000e+00  5.445213e-01 -2.369050e-02 0.000000e+00  4.932719e-01 -2.100018e-02 0.000000e+00  0.000000e+00 0.000000e+00 0.000000e+00  1.324215e+00 -1.308535e-01 0.000000e+00  1.022653e+00 -1.039894e-01 0.000000e+00  1.592767e+00 -3.297728e-01 0.000000e+00  1.180702e+00 -1.380169e-01 0.000000e+00  1.103385e+00 -4.575451e-02 0.000000e+00  1.483310e+00 -9.923717e-02 0.000000e+00  9.464359e-01 -9.908577e-02 0.000000e+00  9.756591e-01 -2.591097e-02 0.000000e+00  -5.464225e-03 -1.560223e-01 0.000000e+00  -6.101302e-02 1.106290e-01 0.000000e+00  -2.588197e-01 9.659256e-01 0.000000e+00  -1.160712e-01 -1.435686e-01 0.000000e+00  1.549882e+00 -1.172563e-01 0.000000e+00  1.393602e+00 8.935370e-02 0.000000e+00  3.359190e-01 -1.804412e-02 0.000000e+00  3.050281e-01 -1.237286e-02 0.000000e+00  0.000000e+00 0.000000e+00 0.000000e+00  1.014725e+00 6.149367e-03 0.000000e+00  1.012079e+00 2.669688e-02 0.000000e+00  1.228917e+00 1.716658e-01 0.000000e+00  4.720193e-01 4.256816e-02 0.000000e+00  0.000000e+00 0.000000e+00 0.000000e+00  6.057873e-01 2.866054e-02 0.000000e+00  1.672905e+00 1.915913e-02 0.000000e+00  1.304592e+00 3.505050e-02 0.000000e+00  1.598734e+00 2.073892e-01 0.000000e+00  1.005768e+00 1.956352e-01 0.000000e+00  1.776010e+00 3.997136e-01 0.000000e+00  1.528043e+00 3.135903e-01 0.000000e+00  1.027154e+00 1.356324e-01 0.000000e+00  1.603952e+00 3.491127e-01 0.000000e+00  1.531234e+00 2.963183e-01 0.000000e+00  1.638100e+00 1.765537e-01 0.000000e+00  1.574716e+00 4.477054e-01 0.000000e+00  3.568944e-01 1.293248e-01 0.000000e+00  -9.911068e-02 1.008951e-01 0.000000e+00  -7.071068e-01 7.071068e-01 0.000000e+00  1.329886e+00 9.038353e-02 0.000000e+00  1.402168e+00 1.562854e-01 0.000000e+00  5.443071e-01 7.317848e-03 0.000000e+00  5.760762e-01 1.993698e-02 0.000000e+00  0.000000e+00 0.000000e+00 0.000000e+00  1.107786e+00 7.661486e-02 0.000000e+00  8.220672e-01 3.100226e-02 0.000000e+00  9.603151e-01 3.302067e-02 0.000000e+00  1.189263e+00 1.183663e-01 0.000000e+00  1.065526e+00 1.322249e-01 0.000000e+00  1.495405e+00 1.020427e-01 0.000000e+00  4.100809e-01 1.035781e-02 0.000000e+00  4.078707e-01 -1.264115e-02 0.000000e+00  0.000000e+00 0.000000e+00 0.000000e+00  7.835375e-01 -5.647476e-02 0.000000e+00  1.104428e+00 -4.346965e-02 0.000000e+00  1.204276e+00 4.500529e-02 0.000000e+00  9.449385e-01 4.718436e-02 0.000000e+00  1.495441e+00 2.358709e-01 0.000000e+00  9.372808e-01 1.321887e-01 0.000000e+00  6.995202e-01 1.141385e-01 0.000000e+00  0.000000e+00 0.000000e+00 0.000000e+00  1.372997e+00 3.164584e-01 0.000000e+00  8.363039e-01 1.124587e-01 0.000000e+00  1.707391e+00 3.548676e-01 0.000000e+00  1.832671e+00 3.036269e-01 0.000000e+00  2.053550e+00 4.123171e-01 0.000000e+00  1.915631e+00 2.983711e-01 0.000000e+00  2.317148e+00 1.427334e-01 0.000000e+00  2.647900e+00 -6.910711e-02 0.000000e+00  1.611354e+00 5.968294e-01 0.000000e+00  3.941410e-01 -1.493541e-02 0.000000e+00  0.000000e+00 0.000000e+00 0.000000e+00  4.839501e-01 6.963603e-03 0.000000e+00  1.845903e+00 2.391021e-02 0.000000e+00  5.022199e-01 2.736676e-02 0.000000e+00  0.000000e+00 0.000000e+00 0.000000e+00  1.210929e+00 5.492129e-03 0.000000e+00  1.666984e+00 -3.295727e-01 0.000000e+00  1.463837e+00 -1.352171e-02 0.000000e+00  1.406250e+00 0.000000e+00 0.000000e+00  6.516236e-01 1.883759e-01 0.000000e+00  6.596936e-01 2.153325e-01 0.000000e+00  7.071068e-01 7.071068e-01 0.000000e+00  1.218995e+00 3.088332e-01 0.000000e+00  9.599185e-01 -6.883853e-01 0.000000e+00  8.677569e-01 -4.763475e-01 0.000000e+00  2.588197e-01 -9.659256e-01 0.000000e+00  1.302850e+00 -8.815397e-01 0.000000e+00  1.560710e+00 -1.453705e+00 0.000000e+00  1.470959e+00 -1.485819e-01 0.000000e+00  1.157877e+00 5.089230e-01 0.000000e+00  1.203393e+00 2.511459e-01 0.000000e+00  5.414464e-01 9.860239e-02 0.000000e+00  -9.472489e-02 1.518017e-01 0.000000e+00  1.776926e+00 4.704850e-01 0.000000e+00  7.869043e-01 -1.477824e-01 0.000000e+00  6.715805e-01 -7.180730e-02 0.000000e+00  0.000000e+00 0.000000e+00 0.000000e+00  1.112589e+00 -1.094970e-01 0.000000e+00  6.562500e-01 0.000000e+00 0.000000e+00  8.566847e-02 5.407176e-01 0.000000e+00  7.298245e-01 2.310915e-01 0.000000e+00  1.423273e+00 3.677618e-01 0.000000e+00  1.048515e+00 2.011733e-01 0.000000e+00  -2.507321e-01 3.976445e-01 0.000000e+00  1.186338e+00 -2.674509e-01 0.000000e+00  1.396978e+00 -1.339189e-01 0.000000e+00  1.406250e+00 0.000000e+00 0.000000e+00  1.424687e+00 -5.546202e-01 0.000000e+00  1.592094e+00 -4.292766e-01 0.000000e+00  1.342287e+00 -3.988575e-01 0.000000e+00  2.072167e+00 -1.337623e+00 0.000000e+00  7.071068e-01 -7.071068e-01 0.000000e+00  1.806342e+00 4.902405e-01 0.000000e+00  1.046257e-01 6.210886e-01 0.00000