<?xml version="1.0"?>
<VTKFile type="UnstructuredGrid"  version="0.1"  >
<UnstructuredGrid>
<Piece  NumberOfPoints="525" NumberOfCells="924">
<Points>
<DataArray  type="Float32"  NumberOfComponents="3"  format="ascii">0 0 0  2.2 0 0  2.2 0.41 0  0 0.41 0  0.15 0.2 0  0.25 0.2 0  0.2 0.15 0  0.2 0.25 0  0.104762 0 0  0.209524 0 0  0.314286 0 0  0.419048 0 0  0.52381 0 0  0.628571 0 0  0.733333 0 0  0.838095 0 0  0.942857 0 0  1.04762 0 0  1.15238 0 0  1.25714 0 0  1.3619 0 0  1.46667 0 0  1.57143 0 0  1.67619 0 0  1.78095 0 0  1.88571 0 0  1.99048 0 0  2.09524 0 0  2.2 0.1025 0  2.2 0.205 0  2.2 0.3075 0  2.1 0.41 0  2 0.41 0  1.9 0.41 0  1.8 0.41 0  1.7 0.41 0  1.6 0.41 0  1.5 0.41 0  1.4 0.41 0  1.3 0.41 0  1.2 0.41 0  1.1 0.41 0  1 0.41 0  0.9 0.41 0  0.8 0.41 0  0.7 0.41 0  0.6 0.41 0  0.5 0.41 0  0.4 0.41 0  0.3 0.41 0  0.2 0.41 0  0.1 0.41 0  0 0.3075 0  0 0.205 0  0 0.1025 0  0.156699 0.225 0  0.175 0.243301 0  0.225 0.243301 0  0.243301 0.225 0  0.243301 0.175 0  0.225 0.156699 0  0.175 0.156699 0  0.156699 0.175 0  0.352033 0.262216 0  1.04579 0.252253 0  1.24065 0.243419 0  0.985775 0.171509 0  1.30324 0.187395 0  0.890988 0.190768 0  1.39085 0.202767 0  0.801464 0.204685 0  1.49904 0.204666 0  0.704267 0.202289 0  1.60238 0.204951 0  0.487789 0.19191 0  1.72935 0.219637 0  1.83335 0.187427 0  2.03359 0.193642 0  0.314663 0.307348 0  0.249039 0.333583 0  2.12147 0.253405 0  2.06373 0.0836837 0  0.0734726 0.267055 0  0.143989 0.0677174 0  0.0613613 0.33781 0  0.299628 0.236829 0  0.527114 0.295386 0  0.262384 0.26549 0  0.275777 0.18341 0  1.74578 0.330928 0  1.84001 0.302448 0  1.64998 0.313838 0  0.648421 0.302367 0  1.54544 0.308508 0  0.755686 0.306156 0  1.42668 0.314809 0  0.870524 0.298596 0  1.22553 0.112785 0  1.05603 0.147372 0  0.969346 0.329867 0  1.32527 0.276284 0  2.02914 0.29511 0  1.88168 0.119486 0  1.79545 0.104842 0  1.35688 0.0892539 0  1.69041 0.105324 0  0.914199 0.0955566 0  1.58234 0.102923 0  0.61843 0.10815 0  1.47999 0.101161 0  0.725217 0.104273 0  0.821727 0.102306 0  1.96725 0.105778 0  0.418624 0.241547 0  0.135226 0.239087 0  1.14921 0.314841 0  0.404508 0.333259 0  0.590155 0.206269 0  2.12554 0.150731 0  1.93166 0.22436 0  0.104689 0.190046 0  0.267856 0.0744753 0  0.269368 0.221581 0  0.434446 0.114927 0  1.0089 0.0793381 0  0.953023 0.246698 0  1.25853 0.33355 0  1.05268 0.340828 0  2.1369 0.067383 0  0.522398 0.112537 0  1.3421 0.348929 0  0.215186 0.289473 0  0.203197 0.335348 0  1.13984 0.190728 0  1.93813 0.330504 0  1.10505 0.0883705 0  0.341988 0.0824728 0  0.253113 0.138035 0  0.291932 0.131907 0  0.203713 0.102439 0  0.150375 0.134668 0  0.151494 0.309119 0  0.354384 0.17896 0  0.0685367 0.100776 0  0.424128 0.180088 0  0.474925 0.0568661 0  2.10843 0.347669 0  2.16073 0.280452 0  2.16073 0.229202 0  2.2 0.25625 0  2.07949 0.0418418 0  2.02711 0.0418418 0  2.04286 0 0  0.176756 0.0338587 0  0.124375 0.0338587 0  0.157143 0 0  0.0806807 0.373905 0  0.0306807 0.373905 0  0.05 0.41 0  0.0306807 0.322655 0  0 0.35875 0  0.281851 0.320466 0  0.27452 0.371791 0  0.307331 0.358674 0  0.067417 0.302432 0  0.0367363 0.287277 0  0.307146 0.272089 0  0.325831 0.249523 0  0.333348 0.284782 0  0.255711 0.299536 0  0.288524 0.286419 0  2.07531 0.274257 0  2.03137 0.244376 0  2.07753 0.223523 0  2.01549 0.0947309 0  1.97886 0.052889 0  2.00042 0.14971 0  2.04866 0.138663 0  0.472869 0.268466 0  0.453206 0.216728 0  0.507451 0.243648 0  2.16277 0.177866 0  2.16277 0.126615 0  2.2 0.15375 0  1.90667 0.171923 0  1.88251 0.205894 0  1.85752 0.153456 0  1.88583 0.263404 0  1.83668 0.244938 0  0.604293 0.15721 0  0.647211 0.204279 0  0.661349 0.15522 0  0.359586 0.320304 0  0.37827 0.297737 0  0.155113 0.241194 0  0.145962 0.232044 0  0.164645 0.235355 0  0.259539 0.179205 0  0.262888 0.191705 0  0.248296 0.187059 0  0.281006 0.251159 0  1.0209 0.15944 0  1.05091 0.199813 0  1.01578 0.211881 0  1.26438 0.15009 0  1.23309 0.178102 0  1.27195 0.215407 0  1.29121 0.101019 0  1.33006 0.138324 0  0.928528 0.0477783 0  0.876147 0.0477783 0  0.890476 0 0  0.902594 0.143162 0  0.949987 0.133533 0  0.938381 0.181138 0  0.867963 0.0989313 0  0.856357 0.146537 0  0.829911 0.051153 0  1.41178 0.0446269 0  1.35939 0.0446269 0  1.41429 0 0  1.37386 0.14601 0  1.34705 0.195081 0  1.41844 0.0952074 0  1.43542 0.151964 0  1.47333 0.0505805 0  0.77753 0.051153 0  0.785714 0 0  0.811595 0.153496 0  0.846226 0.197726 0  0.773472 0.10329 0  0.76334 0.154479 0  0.729275 0.0521365 0  1.52571 0.0505805 0  1.51905 0 0  1.48951 0.152913 0  1.44494 0.203716 0  1.53117 0.102042 0  1.54069 0.153795 0  1.57689 0.0514615 0  1.9804 0.259735 0  1.98262 0.209001 0  1.82001 0.356224 0  1.87 0.356224 0  1.85 0.41 0  1.78468 0.261043 0  1.78135 0.203532 0  1.72289 0.370464 0  1.77289 0.370464 0  1.75 0.41 0  1.7929 0.316688 0  1.73757 0.275282 0  1.62499 0.361919 0  1.67499 0.361919 0  1.65 0.41 0  1.69788 0.322383 0  1.68966 0.266738 0  1.62618 0.259394 0  1.66586 0.212294 0  0.624211 0.356183 0  0.674211 0.356183 0  0.65 0.41 0  0.619288 0.254318 0  0.676344 0.252328 0  1.52272 0.359254 0  1.57272 0.359254 0  1.55 0.41 0  1.59771 0.311173 0  1.57391 0.256729 0  1.52224 0.256587 0  1.55071 0.204809 0  0.727843 0.358078 0  0.777843 0.358078 0  0.75 0.41 0  0.702053 0.304261 0  0.729977 0.254223 0  0.778575 0.25542 0  0.752865 0.203487 0  1.41334 0.362405 0  1.46334 0.362405 0  1.45 0.41 0  1.48606 0.311659 0  1.46286 0.259738 0  1.40876 0.258788 0  0.835262 0.354298 0  0.885262 0.354298 0  0.85 0.41 0  0.813105 0.302376 0  0.835994 0.25164 0  0.880756 0.244682 0  0.934673 0.369934 0  0.984673 0.369934 0  0.95 0.41 0  0.919935 0.314231 0  0.676894 0.0521365 0  0.680952 0 0  0.714742 0.153281 0  0.671824 0.106212 0  0.623501 0.054075 0  1.62927 0.0514615 0  1.62381 0 0  1.59236 0.153937 0  1.63638 0.104124 0  1.6464 0.155137 0  1.6833 0.052662 0  1.73568 0.052662 0  1.72857 0 0  1.70988 0.16248 0  1.74293 0.105083 0  1.7624 0.16224 0  1.7882 0.052421 0  1.84058 0.052421 0  1.83333 0 0  1.8144 0.146135 0  1.83857 0.112164 0  1.88369 0.059743 0  1.12461 0.36242 0  1.17461 0.36242 0  1.15 0.41 0  1.31425 0.231839 0  1.28296 0.259852 0  1.35806 0.239526 0  1.37597 0.295546 0  1.92648 0.052889 0  1.9381 0 0  1.92447 0.112632 0  1.94945 0.165069 0  0.352254 0.37163 0  0.402254 0.37163 0  0.35 0.41 0  0.513557 0.352693 0  0.563557 0.352693 0  0.55 0.41 0  0.587767 0.298876 0  0.558634 0.250827 0  0.538972 0.19909 0  0.452254 0.37163 0  0.45 0.41 0  0.465811 0.314323 0  0.411566 0.287403 0  0.385328 0.251881 0  0.119958 0.214566 0  0.0890808 0.22855 0  0.104349 0.253071 0  0.22452 0.371791 0  0.25 0.41 0  0.291071 0.0372376 0  0.23869 0.0372376 0  0.261905 0 0  0.265876 0.243536 0  0.256335 0.223291 0  0.252842 0.245245 0  0.284498 0.229205 0  1.03246 0.113355 0  0.997337 0.125424 0  0.961549 0.0874474 0  0.922006 0.218733 0  0.969399 0.209103 0  0.961184 0.288282 0  0.911774 0.272647 0  1.22926 0.371775 0  1.27927 0.371775 0  1.25 0.41 0  1.02634 0.375414 0  1.07634 0.375414 0  1.05 0.41 0  1.01101 0.335348 0  2.11607 0.0336915 0  2.16845 0.0336915 0  2.14762 0 0  2.16845 0.0849415 0  2.2 0.05125 0  2.10032 0.0755333 0  0.556277 0.159403 0  0.570414 0.110343 0  0.505093 0.152224 0  1.32105 0.379464 0  1.37105 0.379464 0  1.35 0.41 0  1.33369 0.312607 0  1.38439 0.331869 0  0.999406 0.249476 0  1.00757 0.29106 0  1.30031 0.34124 0  1.2919 0.304917 0  2.13122 0.109057 0  2.09464 0.117207 0  0.272572 0.202495 0  0.259684 0.21079 0  0.248296 0.212941 0  0.287702 0.21012 0  2.1235 0.202068 0  2.07956 0.172187 0  1.02826 0.039669 0  0.975878 0.039669 0  0.995238 0 0  1.04923 0.29654 0  1.10095 0.327835 0  1.0975 0.283547 0  0.57112 0.054075 0  0.576191 0 0  0.523104 0.0562685 0  1.24959 0.288485 0  1.20387 0.324195 0  1.19493 0.27913 0  0.238785 0.277481 0  0.232112 0.311528 0  0.226118 0.334465 0  0.201599 0.372674 0  1.14453 0.252784 0  1.19024 0.217074 0  1.09281 0.221491 0  0.209191 0.31241 0  0.220093 0.266387 0  0.243692 0.254395 0  0.235355 0.235355 0  0.478422 0.113732 0  0.461117 0.153419 0  1.91906 0.370252 0  1.96907 0.370252 0  1.95 0.41 0  1.98364 0.312807 0  2.01457 0.352555 0  1.88907 0.316476 0  1.9349 0.277432 0  1.18268 0.151757 0  1.09794 0.16905 0  1.12872 0.0441853 0  1.07634 0.0441853 0  1.1 0 0  1.05697 0.0838543 0  1.08054 0.117871 0  1.12244 0.139549 0  1.16529 0.100578 0  0.304922 0.078474 0  0.328137 0.0412364 0  0.380518 0.0412364 0  0.366667 0 0  0.388217 0.0986999 0  0.426747 0.0574635 0  0.31696 0.10719 0  0.279894 0.103191 0  0.272523 0.134971 0  0.260485 0.106255 0  0.228413 0.120237 0  0.214357 0.129569 0  0.239057 0.147367 0  1.30701 0.0446269 0  1.30952 0 0  1.24133 0.0563925 0  0.235785 0.0884571 0  1.18895 0.0563925 0  1.20476 0 0  0.206618 0.0512195 0  0.173851 0.0850782 0  0.0367363 0.236028 0  0 0.25625 0  0.264445 0.160722 0  0.248207 0.156517 0  0.235355 0.164645 0  0.283855 0.157658 0  0.130694 0.182523 0  0.127344 0.195023 0  0.151704 0.187059 0  0.127532 0.162357 0  0.153537 0.154834 0  0.0523445 0.197523 0  0.14336 0.274103 0  0.112483 0.288087 0  0.31508 0.181185 0  0.327006 0.207895 0  0.323158 0.155434 0  0.0866493 0.050388 0  0.0342684 0.050388 0  0.052381 0 0  0.0342684 0.101638 0  0 0.05125 0  0.421376 0.210817 0  0.455958 0.185999 0  0.429287 0.147508 0  0.106428 0.323464 0  0.353208 0.220588 0  0.106263 0.0842467 0  0.0342684 0.152888 0  0 0.15375 0  0.109456 0.117722 0  0.147182 0.101193 0  0.0866129 0.145411 0  0.162687 0.145684 0  0.164645 0.164645 0  0.348186 0.130716 0  0.386504 0.210254 0  0.389256 0.179524 0  0.394415 0.146944 0  0.125747 0.359559 0  0.175747 0.359559 0  0.15 0.41 0  0.177345 0.322233 0  0.142613 0.219544 0  0.151704 0.212941 0  0.499367 0.0284331 0  0.446986 0.0284331 0  0.471429 0 0  0.498661 0.0847016 0  0.454685 0.0858966 0  0.201856 0.126219 0  0.212941 0.151704 0  0.18334 0.299296 0  0.175187 0.142334 0  0.187059 0.151704 0  0.177044 0.118554 0  2.15421 0.327585 0  2.15421 0.378834 0  2.2 0.35875 0  2.10421 0.378834 0  2.15 0.41 0  2.05422 0.378
[...]
<PointData  Vectors="u"> 
<DataArray  type="Float32"  Name="u"  NumberOfComponents="3" format="ascii">0.000000e+00 0.000000e+00 0.000000e+00  0.000000e+00 0.000000e+00 0.000000e+00  0.000000e+00 0.000000e+00 0.000000e+00  0.000000e+00 0.000000e+00 0.000000e+00  0.000000e+00 -1.000000e+00 0.000000e+00  0.000000e+00 1.000000e+00 0.000000e+00  1.000000e+00 0.000000e+00 0.000000e+00  -1.000000e+00 0.000000e+00 0.000000e+00  0.000000e+00 0.000000e+00 0.000000e+00  0.000000e+00 0.000000e+00 0.000000e+00  0.000000e+00 0.000000e+00 0.000000e+00  0.000000e+00 0.000000e+00 0.000000e+00  0.000000e+00 0.000000e+00 0.000000e+00  0.000000e+00 0.000000e+00 0.000000e+00  0.000000e+00 0.000000e+00 0.000000e+00  0.000000e+00 0.000000e+00 0.000000e+00  0.000000e+00 0.000000e+00 0.000000e+00  0.000000e+00 0.000000e+00 0.000000e+00  0.000000e+00 0.000000e+00 0.000000e+00  0.000000e+00 0.000000e+00 0.000000e+00  0.000000e+00 0.000000e+00 0.000000e+00  0.000000e+00 0.000000e+00 0.000000e+00  0.000000e+00 0.000000e+00 0.000000e+00  0.000000e+00 0.000000e+00 0.000000e+00  0.000000e+00 0.000000e+00 0.000000e+00  0.000000e+00 0.000000e+00 0.000000e+00  0.000000e+00 0.000000e+00 0.000000e+00  0.000000e+00 0.000000e+00 0.000000e+00  9.267740e-01 -4.999955e-02 0.000000e+00  1.536876e+00 -4.119191e-02 0.000000e+00  1.260818e+00 -1.261372e-02 0.000000e+00  0.000000e+00 0.000000e+00 0.000000e+00  0.000000e+00 0.000000e+00 0.000000e+00  0.000000e+00 0.000000e+00 0.000000e+00  0.000000e+00 0.000000e+00 0.000000e+00  0.000000e+00 0.000000e+00 0.000000e+00  0.000000e+00 0.000000e+00 0.000000e+00  0.000000e+00 0.000000e+00 0.000000e+00  0.000000e+00 0.000000e+00 0.000000e+00  0.000000e+00 0.000000e+00 0.000000e+00  0.000000e+00 0.000000e+00 0.000000e+00  0.000000e+00 0.000000e+00 0.000000e+00  0.000000e+00 0.000000e+00 0.000000e+00  0.000000e+00 0.000000e+00 0.000000e+00  0.000000e+00 0.000000e+00 0.000000e+00  0.000000e+00 0.000000e+00 0.000000e+00  0.000000e+00 0.000000e+00 0.000000e+00  0.000000e+00 0.000000e+00 0.000000e+00  0.000000e+00 0.000000e+00 0.000000e+00  0.000000e+00 0.000000e+00 0.000000e+00  0.000000e+00 0.000000e+00 0.000000e+00  0.000000e+00 0.000000e+00 0.000000e+00  1.125000e+00 0.000000e+00 0.000000e+00  1.500000e+00 0.000000e+00 0.000000e+00  1.125000e+00 0.000000e+00 0.000000e+00  -5.000023e-01 -8.660241e-01 0.000000e+00  -8.660241e-01 -5.000023e-01 0.000000e+00  -8.660241e-01 5.000023e-01 0.000000e+00  -5.000023e-01 8.660241e-01 0.000000e+00  5.000023e-01 8.660241e-01 0.000000e+00  8.660241e-01 5.000023e-01 0.000000e+00  8.660241e-01 -5.000023e-01 0.000000e+00  5.000023e-01 -8.660241e-01 0.000000e+00  1.957368e-01 -3.980886e-01 0.000000e+00  1.744134e+00 -3.836062e-01 0.000000e+00  1.520855e+00 1.740865e-01 0.000000e+00  9.380141e-01 -1.004774e-01 0.000000e+00  1.409012e+00 2.693762e-01 0.000000e+00  1.433994e+00 2.932082e-01 0.000000e+00  1.411536e+00 1.637029e-01 0.000000e+00  1.711260e+00 2.284823e-01 0.000000e+00  1.596960e+00 -4.993655e-01 0.000000e+00  1.261544e+00 -3.177404e-01 0.000000e+00  1.649087e+00 -1.524530e-01 0.000000e+00  1.502128e+00 7.235435e-01 0.000000e+00  1.639850e+00 3.436347e-01 0.000000e+00  1.501789e+00 -2.261279e-01 0.000000e+00  1.583494e+00 1.924180e-01 0.000000e+00  1.863388e+00 -6.482000e-02 0.000000e+00  1.628711e+00 1.933590e-01 0.000000e+00  1.510306e+00 1.602522e-01 0.000000e+00  8.998173e-01 5.633433e-02 0.000000e+00  1.285061e+00 8.976330e-02 0.000000e+00  1.225656e+00 -2.267368e-01 0.000000e+00  9.019184e-01 8.991912e-02 0.000000e+00  -2.478328e-01 -2.479411e-01 0.000000e+00  1.541484e+00 -6.350769e-02 0.000000e+00  3.156503e-01 5.280631e-02 0.000000e+00  2.816638e-02 -6.163546e-02 0.000000e+00  1.061018e+00 2.169262e-02 0.000000e+00  1.285395e+00 -1.398802e-01 0.000000e+00  9.786183e-01 8.814849e-02 0.000000e+00  1.734366e+00 -3.185857e-01 0.000000e+00  1.092617e+00 -1.399463e-01 0.000000e+00  8.440154e-01 5.039840e-02 0.000000e+00  1.412576e+00 -7.248822e-02 0.000000e+00  1.093764e+00 1.536044e-01 0.000000e+00  1.117814e+00 -2.967443e-02 0.000000e+00  1.023778e+00 -1.545033e-01 0.000000e+00  1.399706e+00 -8.104398e-02 0.000000e+00  1.557664e+00 2.481931e-01 0.000000e+00  1.118175e+00 1.140263e-01 0.000000e+00  1.100647e+00 -1.738695e-01 0.000000e+00  8.433088e-01 -6.744782e-02 0.000000e+00  7.928859e-01 7.473137e-02 0.000000e+00  9.910211e-01 1.294397e-01 0.000000e+00  8.520300e-01 -5.501361e-02 0.000000e+00  1.103645e+00 -4.767035e-02 0.000000e+00  1.104034e+00 -5.984164e-02 0.000000e+00  8.662727e-01 -1.201942e-01 0.000000e+00  1.105984e+00 6.624510e-02 0.000000e+00  8.968437e-01 8.969829e-03 0.000000e+00  1.163163e+00 -3.675550e-03 0.000000e+00  -1.418146e-01 3.590674e-01 0.000000e+00  8.764455e-01 3.576291e-01 0.000000e+00  9.808020e-01 -7.585442e-02 0.000000e+00  1.604459e+00 5.264183e-03 0.000000e+00  7.159894e-01 -2.099054e-01 0.000000e+00  1.268854e+00 1.157992e-01 0.000000e+00  1.568825e+00 -2.228273e-01 0.000000e+00  1.204629e+00 -2.923980e-01 0.000000e+00  1.518676e+00 1.109312e-01 0.000000e+00  -1.495920e-01 4.174873e-02 0.000000e+00  1.462254e+00 4.579111e-01 0.000000e+00  7.191933e-01 -7.773381e-04 0.000000e+00  1.719173e+00 1.572245e-01 0.000000e+00  1.000889e+00 2.346436e-02 0.000000e+00  1.065820e+00 -7.163166e-02 0.000000e+00  7.278894e-01 8.241576e-03 0.000000e+00  1.114840e+00 1.493831e-01 0.000000e+00  9.644673e-01 2.875241e-02 0.000000e+00  1.840336e+00 5.545088e-01 0.000000e+00  1.420568e+00 2.764074e-01 0.000000e+00  1.590058e+00 -2.799731e-01 0.000000e+00  8.701517e-01 -1.756910e-02 0.000000e+00  8.225828e-01 -7.777219e-02 0.000000e+00  1.487214e+00 2.321641e-01 0.000000e+00  2.018469e+00 3.779763e-01 0.000000e+00  2.017954e+00 2.898814e-01 0.000000e+00  2.025200e+00 -2.013775e-01 0.000000e+00  1.785077e+00 -1.002066e+00 0.000000e+00  1.299719e+00 4.326642e-01 0.000000e+00  8.954991e-01 6.078288e-02 0.000000e+00  1.163762e+00 -2.174307e-01 0.000000e+00  1.698951e+00 6.853909e-01 0.000000e+00  5.966814e-01 1.217413e-01 0.000000e+00  8.513885e-01 3.883562e-02 0.000000e+00  1.439804e+00 4.767612e-02 0.000000e+00  1.590375e+00 8.150786e-02 0.000000e+00  1.558345e+00 -2.784670e-02 0.000000e+00  5.278467e-01 1.856510e-02 0.000000e+00  5.601089e-01 1.750527e-02 0.000000e+00  0.000000e+00 0.000000e+00 0.000000e+00  9.309206e-01 -4.182286e-02 0.000000e+00  7.370895e-01 -9.238866e-02 0.000000e+00  0.000000e+00 0.000000e+00 0.000000e+00  5.582852e-01 7.277233e-02 0.000000e+00  4.913717e-01 3.235602e-02 0.000000e+00  0.000000e+00 0.000000e+00 0.000000e+00  1.027276e+00 5.734708e-02 0.000000e+00  6.562500e-01 0.000000e+00 0.000000e+00  1.820394e+00 8.280621e-02 0.000000e+00  1.237503e+00 2.623784e-02 0.000000e+00  1.387297e+00 -9.643127e-03 0.000000e+00  1.160570e+00 1.280149e-01 0.000000e+00  1.274831e+00 5.878332e-02 0.000000e+00  6.269537e-01 -1.373301e-01 0.000000e+00  -1.165583e-01 -3.901300e-01 0.000000e+00  1.217730e+00 -2.513148e-01 0.000000e+00  1.970897e+00 2.998476e-01 0.000000e+00  1.465219e+00 -1.300983e-02 0.000000e+00  1.326124e+00 1.690322e-01 0.000000e+00  1.434545e+00 1.914418e-01 0.000000e+00  1.556482e+00 2.492740e-01 0.000000e+00  1.057504e+00 4.982910e-02 0.000000e+00  6.891263e-01 4.346046e-03 0.000000e+00  1.455635e+00 6.925420e-02 0.000000e+00  1.335124e+00 1.438468e-01 0.000000e+00  1.406669e-01 2.673012e-01 0.000000e+00  1.043900e+00 7.141915e-01 0.000000e+00  6.799141e-01 7.510441e-01 0.000000e+00  1.411960e+00 5.419682e-02 0.000000e+00  1.057614e+00 9.731820e-03 0.000000e+00  1.225228e+00 -5.844108e-02 0.000000e+00  1.474031e+00 -2.686877e-01 0.000000e+00  1.599252e+00 -3.632045e-01 0.000000e+00  1.275457e+00 -2.805817e-01 0.000000e+00  1.482650e+00 -2.320728e-01 0.000000e+00  1.650793e+00 -2.436390e-01 0.000000e+00  1.207921e+00 -1.398947e-01 0.000000e+00  8.526972e-01 -4.793802e-01 0.000000e+00  1.374859e+00 -9.709502e-02 0.000000e+00  1.708227e+00 -1.250310e-01 0.000000e+00  1.290778e+00 -1.267032e-01 0.000000e+00  8.660111e-01 7.865541e-01 0.000000e+00  6.408798e-01 5.431809e-01 0.000000e+00  -7.071068e-01 -7.071068e-01 0.000000e+00  -5.660969e-03 1.601284e-01 0.000000e+00  -4.192249e-02 1.655260e-01 0.000000e+00  2.588197e-01 9.659256e-01 0.000000e+00  -6.771715e-02 -4.389567e-02 0.000000e+00  8.864108e-01 -1.648130e-01 0.000000e+00  1.357099e+00 -3.304935e-01 0.000000e+00  1.451628e+00 -2.217172e-01 0.000000e+00  1.344668e+00 8.976893e-02 0.000000e+00  1.548562e+00 6.987913e-02 0.000000e+00  1.552246e+00 2.611221e-01 0.000000e+00  9.926488e-01 8.183590e-02 0.000000e+00  1.161700e+00 1.855956e-01 0.000000e+00  3.603513e-01 -6.180595e-03 0.000000e+00  3.286084e-01 -1.326486e-02 0.000000e+00  0.000000e+00 0.000000e+00 0.000000e+00  9.866884e-01 2.219602e-02 0.000000e+00  8.562240e-01 -1.105236e-02 0.000000e+00  1.115067e+00 1.173296e-01 0.000000e+00  8.427481e-01 -5.500151e-02 0.000000e+00  1.272004e+00 8.285692e-02 0.000000e+00  3.485125e-01 -7.361629e-03 0.000000e+00  3.735897e-01 2.497082e-03 0.000000e+00  3.840295e-01 2.527336e-02 0.000000e+00  0.000000e+00 0.000000e+00 0.000000e+00  1.096303e+00 1.747566e-01 0.000000e+00  1.369616e+00 2.998582e-01 0.000000e+00  7.654623e-01 3.725270e-03 0.000000e+00  1.092973e+00 -6.838870e-02 0.000000e+00  4.545289e-01 -3.570941e-02 0.000000e+00  3.503047e-01 1.052253e-02 0.000000e+00  0.000000e+00 0.000000e+00 0.000000e+00  1.563777e+00 1.725655e-01 0.000000e+00  1.652883e+00 3.462090e-01 0.000000e+00  9.862815e-01 6.993518e-02 0.000000e+00  1.639177e+00 1.763752e-01 0.000000e+00  3.768507e-01 1.145877e-02 0.000000e+00  5.332334e-01 -5.186015e-02 0.000000e+00  0.000000e+00 0.000000e+00 0.000000e+00  1.205174e+00 -3.234226e-01 0.000000e+00  1.484657e+00 -1.921444e-01 0.000000e+00  1.000033e+00 -1.392343e-01 0.000000e+00  1.389613e+00 -3.263956e-01 0.000000e+00  5.899687e-01 -2.850647e-02 0.000000e+00  1.324242e+00 2.696204e-02 0.000000e+00  1.578040e+00 6.227131e-03 0.000000e+00  7.512241e-01 -2.160446e-02 0.000000e+00  6.965908e-01 -3.241888e-02 0.000000e+00  0.000000e+00 0.000000e+00 0.000000e+00  1.637061e+00 2.145863e-03 0.000000e+00  1.610595e+00 7.251128e-02 0.000000e+00  5.884245e-01 2.177890e-02 0.000000e+00  6.010689e-01 2.883811e-03 0.000000e+00  0.000000e+00 0.000000e+00 0.000000e+00  1.205023e+00 -5.523178e-02 0.000000e+00  1.474015e+00 1.992697e-01 0.000000e+00  6.239758e-01 1.774334e-02 0.000000e+00  6.587258e-01 3.686314e-02 0.000000e+00  0.000000e+00 0.000000e+00 0.000000e+00  1.043496e+00 7.544627e-02 0.000000e+00  1.378824e+00 3.226081e-01 0.000000e+00  1.310347e+00 1.279960e-01 0.000000e+00  1.631249e+00 3.083385e-01 0.000000e+00  1.021442e+00 -1.322965e-01 0.000000e+00  9.172046e-01 1.536326e-02 0.000000e+00  0.000000e+00 0.000000e+00 0.000000e+00  1.579249e+00 -3.012987e-01 0.000000e+00  1.527997e+00 -5.842873e-01 0.000000e+00  6.845284e-01 -4.628197e-02 0.000000e+00  6.320881e-01 -2.564812e-02 0.000000e+00  0.000000e+00 0.000000e+00 0.000000e+00  9.484118e-01 -5.476605e-03 0.000000e+00  1.401127e+00 -2.097968e-01 0.000000e+00  1.579836e+00 -4.074208e-01 0.000000e+00  1.626641e+00 -4.857275e-01 0.000000e+00  9.469554e-01 8.949797e-02 0.000000e+00  1.091253e+00 7.524191e-02 0.000000e+00  0.000000e+00 0.000000e+00 0.000000e+00  1.269034e+00 -1.320726e-01 0.000000e+00  1.469445e+00 -4.176818e-01 0.000000e+00  1.438751e+00 -6.258468e-02 0.000000e+00  1.585890e+00 -3.009814e-02 0.000000e+00  7.913363e-01 -9.835882e-03 0.000000e+00  7.308342e-01 -3.953574e-02 0.000000e+00  0.000000e+00 0.000000e+00 0.000000e+00  1.294291e+00 -1.797424e-01 0.000000e+00  1.744611e+00 -2.740549e-01 0.000000e+00  1.771799e+00 1.774449e-02 0.000000e+00  1.209509e+00 3.475308e-04 0.000000e+00  1.203614e+00 -2.347935e-02 0.000000e+00  0.000000e+00 0.000000e+00 0.000000e+00  8.041101e-01 1.402835e-01 0.000000e+00  1.538519e+00 3.309135e-01 0.000000e+00  1.653939e+00 4.500973e-01 0.000000e+00  8.093599e-01 -1.493477e-02 0.000000e+00  8.084201e-01 1.565746e-02 0.000000e+00  0.000000e+00 0.000000e+00 0.000000e+00  1.460502e+00 3.711718e-02 0.000000e+00  3.937660e-01 -1.110001e-02 0.000000e+00  0.000000e+00 0.000000e+00 0.000000e+00  1.538966e+00 7.495072e-02 0.000000e+00  1.162168e+00 -4.840613e-04 0.000000e+00  4.199770e-01 -2.649403e-02 0.000000e+00  6.087215e-01 6.512874e-03 0.000000e+00  0.000000e+00 0.000000e+00 0.000000e+00  1.518947e+00 -9.731002e-02 0.000000e+00  1.107931e+00 8.417992e-02 0.000000e+00  1.539594e+00 2.041897e-01 0.000000e+00  5.787490e-01 2.898306e-02 0.000000e+00  5.448125e-01 1.878153e-02 0.000000e+00  0.000000e+00 0.000000e+00 0.000000e+00  1.455431e+00 3.038793e-01 0.000000e+00  8.623113e-01 5.572092e-02 0.000000e+00  1.317053e+00 9.374755e-02 0.000000e+00  5.508657e-01 -1.126008e-02 0.000000e+00  5.934130e-01 -3.026795e-02 0.000000e+00  0.000000e+00 0.000000e+00 0.000000e+00  1.140829e+00 -1.631398e-01 0.000000e+00  9.353773e-01 -1.426269e-01 0.000000e+00  7.060644e-01 -4.212570e-02 0.000000e+00  8.009318e-01 -3.989131e-02 0.000000e+00  7.669356e-01 -2.383556e-02 0.000000e+00  0.000000e+00 0.000000e+00 0.000000e+00  1.569975e+00 3.402119e-01 0.000000e+00  1.491631e+00 2.562633e-01 0.000000e+00  1.635267e+00 2.803333e-01 0.000000e+00  1.571534e+00 8.311805e-02 0.000000e+00  6.841555e-01 -1.921779e-02 0.000000e+00  0.000000e+00 0.000000e+00 0.000000e+00  1.164481e+00 -9.753498e-02 0.000000e+00  1.513905e+00 -1.259427e-01 0.000000e+00  1.311593e+00 -1.689442e-02 0.000000e+00  1.322557e+00 -2.167027e-02 0.000000e+00  0.000000e+00 0.000000e+00 0.000000e+00  1.530912e+00 -1.729048e-01 0.000000e+00  1.403260e+00 -2.207746e-01 0.000000e+00  0.000000e+00 0.000000e+00 0.000000e+00  1.863898e+00 -3.498179e-01 0.000000e+00  1.345888e+00 3.906172e-01 0.000000e+00  9.807250e-01 2.882335e-01 0.000000e+00  1.323013e+00 -3.988290e-02 0.000000e+00  0.000000e+00 0.000000e+00 0.000000e+00  1.720140e+00 1.120058e-01 0.000000e+00  8.805067e-01 -1.337912e-01 0.000000e+00  -3.279392e-01 -1.608120e-01 0.000000e+00  8.801875e-01 -1.062722e-01 0.000000e+00  1.285151e+00 -2.664304e-02 0.000000e+00  1.199436e+00 1.833867e-01 0.000000e+00  1.090197e+00 9.093246e-02 0.000000e+00  0.000000e+00 0.000000e+00 0.000000e+00  1.037589e+00 9.045440e-02 0.000000e+00  1.148224e+00 1.496833e-02 0.000000e+00  0.000000e+00 0.000000e+00 0.000000e+00  -1.416327e-01 1.180987e-01 0.000000e+00  -2.012730e-01 3.549916e-01 0.000000e+00  -1.844570e-01 1.971196e-01 0.000000e+00  -2.249713e-01 -9.077750e-02 0.000000e+00  9.980162e-01 -2.834974e-03 0.000000e+00  9.223560e-01 8.810812e-03 0.000000e+00  8.157098e-01 -7.230681e-03 0.000000e+00  1.590008e+00 3.187533e-01 0.000000e+00  1.398523e+00 6.668033e-02 0.000000e+00  1.732534e+00 8.905131e-02 0.000000e+00  1.565034e+00 2.788064e-01 0.000000e+00  6.049983e-01 -5.364332e-03 0.000000e+00  6.224111e-01 1.666372e-02 0.000000e+00  0.000000e+00 0.000000e+00 0.000000e+00  6.863767e-01 -2.106393e-02 0.000000e+00  6.779491e-01 -1.636434e-02 0.000000e+00  0.000000e+00 0.000000e+00 0.000000e+00  1.302059e+00 -5.376361e-02 0.000000e+00  4.190354e-01 1.003772e-02 0.000000e+00  4.182132e-01 -8.920207e-03 0.000000e+00  0.000000e+00 0.000000e+00 0.000000e+00  8.324893e-01 -1.462554e-02 0.000000e+00  6.134401e-01 -2.362322e-02 0.000000e+00  8.061357e-01 3.518739e-02 0.000000e+00  1.174495e+00 6.244491e-02 0.000000e+00  1.059569e+00 -4.763038e-03 0.000000e+00  1.311493e+00 3.681413e-01 0.000000e+00  5.211438e-01 1.448425e-02 0.000000e+00  5.473133e-01 1.039647e-02 0.000000e+00  0.000000e+00 0.000000e+00 0.000000e+00  1.310015e+00 9.935540e-02 0.000000e+00  1.202190e+00 2.362903e-03 0.000000e+00  1.747374e+00 -1.332851e-01 0.000000e+00  1.716264e+00 -1.565612e-01 0.000000e+00  1.006411e+00 3.858034e-02 0.000000e+00  1.230218e+00 1.263828e-01 0.000000e+00  9.811759e-01 4.325685e-02 0.000000e+00  1.088863e+00 9.726018e-02 0.000000e+00  -5.713496e-02 -4.633954e-02 0.000000e+00  -1.070844e-01 3.176947e-01 0.000000e+00  -2.588197e-01 9.659256e-01 0.000000e+00  -1.352539e-01 -1.771674e-01 0.000000e+00  1.552919e+00 1.849190e-01 0.000000e+00  1.477394e+00 2.183253e-01 0.000000e+00  2.966043e-01 -3.742687e-03 0.000000e+00  2.917913e-01 9.042032e-04 0.000000e+00  0.000000e+00 0.000000e+00 0.000000e+00  1.564160e+00 -2.120284e-01 0.000000e+00  1.051424e+00 -1.043976e-01 0.000000e+00  1.419115e+00 -2.821690e-01 0.000000e+00  4.222815e-01 -2.410847e-02 0.000000e+00  0.000000e+00 0.000000e+00 0.000000e+00  4.932777e-01 2.366804e-02 0.000000e+00  1.197766e+00 1.201902e-01 0.000000e+00  9.820219e-01 -1.529147e-02 0.000000e+00  1.205611e+00 -4.486790e-03 0.000000e+00  1.209032e+00 2.247487e-01 0.000000e+00  1.787700e+00 3.267341e-01 0.000000e+00  1.540492e+00 2.614138e-01 0.000000e+00  1.029062e+00 1.136768e-01 0.000000e+00  1.543664e+00 -2.536179e-01 0.000000e+00  1.642505e+00 -6.355681e-02 0.000000e+00  1.631416e+00 -4.479280e-01 0.000000e+00  1.597087e+00 4.032845e-01 0.000000e+00  4.600813e-01 1.482457e-01 0.000000e+00  -7.579701e-02 1.839332e-01 0.000000e+00  -7.071068e-01 7.071068e-01 0.000000e+00  1.262403e+00 3.266656e-01 0.000000e+00  1.584383e+00 6.024341e-01 0.000000e+00  5.059676e-01 -1.690883e-02 0.000000e+00  5.042752e-01 2.524693e-03 0.000000e+00  0.000000e+00 0.000000e+00 0.000000e+00  9.864146e-01 4.462431e-02 0.000000e+00  7.216731e-01 3.189419e-02 0.000000e+00  1.051937e+00 -8.982595e-02 0.000000e+00  1.231521e+00 -1.058884e-01 0.000000e+00  1.448982e+00 -7.870920e-02 0.000000e+00  1.319110e+00 -2.676440e-01 0.000000e+00  4.125995e-01 -3.001675e-02 0.000000e+00  3.656342e-01 -2.568341e-02 0.000000e+00  0.000000e+00 0.000000e+00 0.000000e+00  7.621187e-01 -2.490401e-02 0.000000e+00  1.063697e+00 -4.747787e-02 0.000000e+00  1.278260e+00 -1.197124e-01 0.000000e+00  9.713290e-01 -8.795016e-02 0.000000e+00  1.535617e+00 1.908296e-01 0.000000e+00  1.000594e+00 1.216006e-01 0.000000e+00  7.282954e-01 1.294278e-01 0.000000e+00  0.000000e+00 0.000000e+00 0.000000e+00  1.509683e+00 3.598858e-01 0.000000e+00  8.051740e-01 1.843499e-01 0.000000e+00  1.759134e+00 2.680013e-01 0.000000e+00  1.839787e+00 2.290798e-01 0.000000e+00  1.990995e+00 3.217712e-01 0.000000e+00  1.899538e+00 2.263998e-01 0.000000e+00  2.286236e+00 8.979747e-02 0.000000e+00  2.588442e+00 -9.243780e-02 0.000000e+00  1.483653e+00 5.270432e-01 0.000000e+00  4.257916e-01 3.126769e-02 0.000000e+00  0.000000e+00 0.000000e+00 0.000000e+00  5.812888e-01 1.733343e-02 0.000000e+00  1.823695e+00 -1.503371e-02 0.000000e+00  5.807779e-01 -2.210932e-02 0.000000e+00  0.000000e+00 0.000000e+00 0.000000e+00  1.192800e+00 -9.934968e-03 0.000000e+00  1.643280e+00 -3.275673e-01 0.000000e+00  1.463762e+00 3.280109e-03 0.000000e+00  1.406250e+00 0.000000e+00 0.000000e+00  5.107346e-01 1.357148e-01 0.000000e+00  5.762046e-01 1.803307e-01 0.000000e+00  7.071068e-01 7.071068e-01 0.000000e+00  9.897826e-01 2.134195e-01 0.000000e+00  9.507588e-01 -6.542850e-01 0.000000e+00  8.665276e-01 -4.388258e-01 0.000000e+00  2.588197e-01 -9.659256e-01 0.000000e+00  1.285257e+00 -8.409549e-01 0.000000e+00  1.531360e+00 -1.414816e+00 0.000000e+00  1.469156e+00 -1.258191e-01 0.000000e+00  1.182417e+00 5.241067e-01 0.000000e+00  1.217232e+00 2.691593e-01 0.000000e+00  3.258992e-01 -1.424848e-01 0.000000e+00  -1.668775e-02 -2.806338e-01 0.000000e+00  1.538539e+00 2.449595e-01 0.000000e+00  7.793606e-01 -1.396694e-01 0.000000e+00  6.696111e-01 -6.561373e-02 0.000000e+00  0.000000e+00 0.000000e+00 0.000000e+00  1.111407e+00 -9.812113e-02 0.000000e+00  6.562500e-01 0.000000e+00 0.000000e+00  9.622197e-01 4.299974e-01 0.000000e+00  1.672666e+00 8.109046e-01 0.000000e+00  1.777099e+00 5.907965e-01 0.000000e+00  1.060876e+00 2.137401e-01 0.000000e+00  -1.765973e-01 -4.031356e-01 0.000000e+00  1.171158e+00 -2.568533e-01 0.000000e+00  1.396254e+00 -1.181653e-01 0.000000e+00  1.406250e+00 0.000000e+00 0.000000e+00  1.408418e+00 -5.299043e-01 0.000000e+00  1.565221e+00 -4.167315e-01 0.000000e+00  1.335966e+00 -3.657791e-01 0.000000e+00  2.037141e+00 -1.307853e+00 0.000000e+00  7.071068e-01 -7.071068e-01 0.000000e+00  2.004237e+00 3.560550e-01 0.000000e+00  4.553774e-01 -2.007019e-01 0.000000e+00  1.