<?xml version="1.0"?>
<VTKFile type="UnstructuredGrid"  version="0.1"  >
<UnstructuredGrid>
<Piece  NumberOfPoints="525" NumberOfCells="924">
<Points>
<DataArray  type="Float32"  NumberOfComponents="3"  format="ascii">0 0 0  2.2 0 0  2.2 0.41 0  0 0.41 0  0.15 0.2 0  0.25 0.2 0  0.2 0.15 0  0.2 0.25 0  0.104762 0 0  0.209524 0 0  0.314286 0 0  0.419048 0 0  0.52381 0 0  0.628571 0 0  0.733333 0 0  0.838095 0 0  0.942857 0 0  1.04762 0 0  1.15238 0 0  1.25714 0 0  1.3619 0 0  1.46667 0 0  1.57143 0 0  1.67619 0 0  1.78095 0 0  1.88571 0 0  1.99048 0 0  2.09524 0 0  2.2 0.1025 0  2.2 0.205 0  2.2 0.3075 0  2.1 0.41 0  2 0.41 0  1.9 0.41 0  1.8 0.41 0  1.7 0.41 0  1.6 0.41 0  1.5 0.41 0  1.4 0.41 0  1.3 0.41 0  1.2 0.41 0  1.1 0.41 0  1 0.41 0  0.9 0.41 0  0.8 0.41 0  0.7 0.41 0  0.6 0.41 0  0.5 0.41 0  0.4 0.41 0  0.3 0.41 0  0.2 0.41 0  0.1 0.41 0  0 0.3075 0  0 0.205 0  0 0.1025 0  0.156699 0.225 0  0.175 0.243301 0  0.225 0.243301 0  0.243301 0.225 0  0.243301 0.175 0  0.225 0.156699 0  0.175 0.156699 0  0.156699 0.175 0  0.352033 0.262216 0  1.04579 0.252253 0  1.24065 0.243419 0  0.985775 0.171509 0  1.30324 0.187395 0  0.890988 0.190768 0  1.39085 0.202767 0  0.801464 0.204685 0  1.49904 0.204666 0  0.704267 0.202289 0  1.60238 0.204951 0  0.487789 0.19191 0  1.72935 0.219637 0  1.83335 0.187427 0  2.03359 0.193642 0  0.314663 0.307348 0  0.249039 0.333583 0  2.12147 0.253405 0  2.06373 0.0836837 0  0.0734726 0.267055 0  0.143989 0.0677174 0  0.0613613 0.33781 0  0.299628 0.236829 0  0.527114 0.295386 0  0.262384 0.26549 0  0.275777 0.18341 0  1.74578 0.330928 0  1.84001 0.302448 0  1.64998 0.313838 0  0.648421 0.302367 0  1.54544 0.308508 0  0.755686 0.306156 0  1.42668 0.314809 0  0.870524 0.298596 0  1.22553 0.112785 0  1.05603 0.147372 0  0.969346 0.329867 0  1.32527 0.276284 0  2.02914 0.29511 0  1.88168 0.119486 0  1.79545 0.104842 0  1.35688 0.0892539 0  1.69041 0.105324 0  0.914199 0.0955566 0  1.58234 0.102923 0  0.61843 0.10815 0  1.47999 0.101161 0  0.725217 0.104273 0  0.821727 0.102306 0  1.96725 0.105778 0  0.418624 0.241547 0  0.135226 0.239087 0  1.14921 0.314841 0  0.404508 0.333259 0  0.590155 0.206269 0  2.12554 0.150731 0  1.93166 0.22436 0  0.104689 0.190046 0  0.267856 0.0744753 0  0.269368 0.221581 0  0.434446 0.114927 0  1.0089 0.0793381 0  0.953023 0.246698 0  1.25853 0.33355 0  1.05268 0.340828 0  2.1369 0.067383 0  0.522398 0.112537 0  1.3421 0.348929 0  0.215186 0.289473 0  0.203197 0.335348 0  1.13984 0.190728 0  1.93813 0.330504 0  1.10505 0.0883705 0  0.341988 0.0824728 0  0.253113 0.138035 0  0.291932 0.131907 0  0.203713 0.102439 0  0.150375 0.134668 0  0.151494 0.309119 0  0.354384 0.17896 0  0.0685367 0.100776 0  0.424128 0.180088 0  0.474925 0.0568661 0  2.10843 0.347669 0  2.16073 0.280452 0  2.16073 0.229202 0  2.2 0.25625 0  2.07949 0.0418418 0  2.02711 0.0418418 0  2.04286 0 0  0.176756 0.0338587 0  0.124375 0.0338587 0  0.157143 0 0  0.0806807 0.373905 0  0.0306807 0.373905 0  0.05 0.41 0  0.0306807 0.322655 0  0 0.35875 0  0.281851 0.320466 0  0.27452 0.371791 0  0.307331 0.358674 0  0.067417 0.302432 0  0.0367363 0.287277 0  0.307146 0.272089 0  0.325831 0.249523 0  0.333348 0.284782 0  0.255711 0.299536 0  0.288524 0.286419 0  2.07531 0.274257 0  2.03137 0.244376 0  2.07753 0.223523 0  2.01549 0.0947309 0  1.97886 0.052889 0  2.00042 0.14971 0  2.04866 0.138663 0  0.472869 0.268466 0  0.453206 0.216728 0  0.507451 0.243648 0  2.16277 0.177866 0  2.16277 0.126615 0  2.2 0.15375 0  1.90667 0.171923 0  1.88251 0.205894 0  1.85752 0.153456 0  1.88583 0.263404 0  1.83668 0.244938 0  0.604293 0.15721 0  0.647211 0.204279 0  0.661349 0.15522 0  0.359586 0.320304 0  0.37827 0.297737 0  0.155113 0.241194 0  0.145962 0.232044 0  0.164645 0.235355 0  0.259539 0.179205 0  0.262888 0.191705 0  0.248296 0.187059 0  0.281006 0.251159 0  1.0209 0.15944 0  1.05091 0.199813 0  1.01578 0.211881 0  1.26438 0.15009 0  1.23309 0.178102 0  1.27195 0.215407 0  1.29121 0.101019 0  1.33006 0.138324 0  0.928528 0.0477783 0  0.876147 0.0477783 0  0.890476 0 0  0.902594 0.143162 0  0.949987 0.133533 0  0.938381 0.181138 0  0.867963 0.0989313 0  0.856357 0.146537 0  0.829911 0.051153 0  1.41178 0.0446269 0  1.35939 0.0446269 0  1.41429 0 0  1.37386 0.14601 0  1.34705 0.195081 0  1.41844 0.0952074 0  1.43542 0.151964 0  1.47333 0.0505805 0  0.77753 0.051153 0  0.785714 0 0  0.811595 0.153496 0  0.846226 0.197726 0  0.773472 0.10329 0  0.76334 0.154479 0  0.729275 0.0521365 0  1.52571 0.0505805 0  1.51905 0 0  1.48951 0.152913 0  1.44494 0.203716 0  1.53117 0.102042 0  1.54069 0.153795 0  1.57689 0.0514615 0  1.9804 0.259735 0  1.98262 0.209001 0  1.82001 0.356224 0  1.87 0.356224 0  1.85 0.41 0  1.78468 0.261043 0  1.78135 0.203532 0  1.72289 0.370464 0  1.77289 0.370464 0  1.75 0.41 0  1.7929 0.316688 0  1.73757 0.275282 0  1.62499 0.361919 0  1.67499 0.361919 0  1.65 0.41 0  1.69788 0.322383 0  1.68966 0.266738 0  1.62618 0.259394 0  1.66586 0.212294 0  0.624211 0.356183 0  0.674211 0.356183 0  0.65 0.41 0  0.619288 0.254318 0  0.676344 0.252328 0  1.52272 0.359254 0  1.57272 0.359254 0  1.55 0.41 0  1.59771 0.311173 0  1.57391 0.256729 0  1.52224 0.256587 0  1.55071 0.204809 0  0.727843 0.358078 0  0.777843 0.358078 0  0.75 0.41 0  0.702053 0.304261 0  0.729977 0.254223 0  0.778575 0.25542 0  0.752865 0.203487 0  1.41334 0.362405 0  1.46334 0.362405 0  1.45 0.41 0  1.48606 0.311659 0  1.46286 0.259738 0  1.40876 0.258788 0  0.835262 0.354298 0  0.885262 0.354298 0  0.85 0.41 0  0.813105 0.302376 0  0.835994 0.25164 0  0.880756 0.244682 0  0.934673 0.369934 0  0.984673 0.369934 0  0.95 0.41 0  0.919935 0.314231 0  0.676894 0.0521365 0  0.680952 0 0  0.714742 0.153281 0  0.671824 0.106212 0  0.623501 0.054075 0  1.62927 0.0514615 0  1.62381 0 0  1.59236 0.153937 0  1.63638 0.104124 0  1.6464 0.155137 0  1.6833 0.052662 0  1.73568 0.052662 0  1.72857 0 0  1.70988 0.16248 0  1.74293 0.105083 0  1.7624 0.16224 0  1.7882 0.052421 0  1.84058 0.052421 0  1.83333 0 0  1.8144 0.146135 0  1.83857 0.112164 0  1.88369 0.059743 0  1.12461 0.36242 0  1.17461 0.36242 0  1.15 0.41 0  1.31425 0.231839 0  1.28296 0.259852 0  1.35806 0.239526 0  1.37597 0.295546 0  1.92648 0.052889 0  1.9381 0 0  1.92447 0.112632 0  1.94945 0.165069 0  0.352254 0.37163 0  0.402254 0.37163 0  0.35 0.41 0  0.513557 0.352693 0  0.563557 0.352693 0  0.55 0.41 0  0.587767 0.298876 0  0.558634 0.250827 0  0.538972 0.19909 0  0.452254 0.37163 0  0.45 0.41 0  0.465811 0.314323 0  0.411566 0.287403 0  0.385328 0.251881 0  0.119958 0.214566 0  0.0890808 0.22855 0  0.104349 0.253071 0  0.22452 0.371791 0  0.25 0.41 0  0.291071 0.0372376 0  0.23869 0.0372376 0  0.261905 0 0  0.265876 0.243536 0  0.256335 0.223291 0  0.252842 0.245245 0  0.284498 0.229205 0  1.03246 0.113355 0  0.997337 0.125424 0  0.961549 0.0874474 0  0.922006 0.218733 0  0.969399 0.209103 0  0.961184 0.288282 0  0.911774 0.272647 0  1.22926 0.371775 0  1.27927 0.371775 0  1.25 0.41 0  1.02634 0.375414 0  1.07634 0.375414 0  1.05 0.41 0  1.01101 0.335348 0  2.11607 0.0336915 0  2.16845 0.0336915 0  2.14762 0 0  2.16845 0.0849415 0  2.2 0.05125 0  2.10032 0.0755333 0  0.556277 0.159403 0  0.570414 0.110343 0  0.505093 0.152224 0  1.32105 0.379464 0  1.37105 0.379464 0  1.35 0.41 0  1.33369 0.312607 0  1.38439 0.331869 0  0.999406 0.249476 0  1.00757 0.29106 0  1.30031 0.34124 0  1.2919 0.304917 0  2.13122 0.109057 0  2.09464 0.117207 0  0.272572 0.202495 0  0.259684 0.21079 0  0.248296 0.212941 0  0.287702 0.21012 0  2.1235 0.202068 0  2.07956 0.172187 0  1.02826 0.039669 0  0.975878 0.039669 0  0.995238 0 0  1.04923 0.29654 0  1.10095 0.327835 0  1.0975 0.283547 0  0.57112 0.054075 0  0.576191 0 0  0.523104 0.0562685 0  1.24959 0.288485 0  1.20387 0.324195 0  1.19493 0.27913 0  0.238785 0.277481 0  0.232112 0.311528 0  0.226118 0.334465 0  0.201599 0.372674 0  1.14453 0.252784 0  1.19024 0.217074 0  1.09281 0.221491 0  0.209191 0.31241 0  0.220093 0.266387 0  0.243692 0.254395 0  0.235355 0.235355 0  0.478422 0.113732 0  0.461117 0.153419 0  1.91906 0.370252 0  1.96907 0.370252 0  1.95 0.41 0  1.98364 0.312807 0  2.01457 0.352555 0  1.88907 0.316476 0  1.9349 0.277432 0  1.18268 0.151757 0  1.09794 0.16905 0  1.12872 0.0441853 0  1.07634 0.0441853 0  1.1 0 0  1.05697 0.0838543 0  1.08054 0.117871 0  1.12244 0.139549 0  1.16529 0.100578 0  0.304922 0.078474 0  0.328137 0.0412364 0  0.380518 0.0412364 0  0.366667 0 0  0.388217 0.0986999 0  0.426747 0.0574635 0  0.31696 0.10719 0  0.279894 0.103191 0  0.272523 0.134971 0  0.260485 0.106255 0  0.228413 0.120237 0  0.214357 0.129569 0  0.239057 0.147367 0  1.30701 0.0446269 0  1.30952 0 0  1.24133 0.0563925 0  0.235785 0.0884571 0  1.18895 0.0563925 0  1.20476 0 0  0.206618 0.0512195 0  0.173851 0.0850782 0  0.0367363 0.236028 0  0 0.25625 0  0.264445 0.160722 0  0.248207 0.156517 0  0.235355 0.164645 0  0.283855 0.157658 0  0.130694 0.182523 0  0.127344 0.195023 0  0.151704 0.187059 0  0.127532 0.162357 0  0.153537 0.154834 0  0.0523445 0.197523 0  0.14336 0.274103 0  0.112483 0.288087 0  0.31508 0.181185 0  0.327006 0.207895 0  0.323158 0.155434 0  0.0866493 0.050388 0  0.0342684 0.050388 0  0.052381 0 0  0.0342684 0.101638 0  0 0.05125 0  0.421376 0.210817 0  0.455958 0.185999 0  0.429287 0.147508 0  0.106428 0.323464 0  0.353208 0.220588 0  0.106263 0.0842467 0  0.0342684 0.152888 0  0 0.15375 0  0.109456 0.117722 0  0.147182 0.101193 0  0.0866129 0.145411 0  0.162687 0.145684 0  0.164645 0.164645 0  0.348186 0.130716 0  0.386504 0.210254 0  0.389256 0.179524 0  0.394415 0.146944 0  0.125747 0.359559 0  0.175747 0.359559 0  0.15 0.41 0  0.177345 0.322233 0  0.142613 0.219544 0  0.151704 0.212941 0  0.499367 0.0284331 0  0.446986 0.0284331 0  0.471429 0 0  0.498661 0.0847016 0  0.454685 0.0858966 0  0.201856 0.126219 0  0.212941 0.151704 0  0.18334 0.299296 0  0.175187 0.142334 0  0.187059 0.151704 0  0.177044 0.118554 0  2.15421 0.327585 0  2.15421 0.378834 0  2.2 0.35875 0  2.10421 0.378834 0  2.15 0.41 0  2.05422 0.378
[...]
<PointData  Vectors="u"> 
<DataArray  type="Float32"  Name="u"  NumberOfComponents="3" format="ascii">0.000000e+00 0.000000e+00 0.000000e+00  0.000000e+00 0.000000e+00 0.000000e+00  0.000000e+00 0.000000e+00 0.000000e+00  0.000000e+00 0.000000e+00 0.000000e+00  0.000000e+00 -1.000000e+00 0.000000e+00  0.000000e+00 1.000000e+00 0.000000e+00  1.000000e+00 0.000000e+00 0.000000e+00  -1.000000e+00 0.000000e+00 0.000000e+00  0.000000e+00 0.000000e+00 0.000000e+00  0.000000e+00 0.000000e+00 0.000000e+00  0.000000e+00 0.000000e+00 0.000000e+00  0.000000e+00 0.000000e+00 0.000000e+00  0.000000e+00 0.000000e+00 0.000000e+00  0.000000e+00 0.000000e+00 0.000000e+00  0.000000e+00 0.000000e+00 0.000000e+00  0.000000e+00 0.000000e+00 0.000000e+00  0.000000e+00 0.000000e+00 0.000000e+00  0.000000e+00 0.000000e+00 0.000000e+00  0.000000e+00 0.000000e+00 0.000000e+00  0.000000e+00 0.000000e+00 0.000000e+00  0.000000e+00 0.000000e+00 0.000000e+00  0.000000e+00 0.000000e+00 0.000000e+00  0.000000e+00 0.000000e+00 0.000000e+00  0.000000e+00 0.000000e+00 0.000000e+00  0.000000e+00 0.000000e+00 0.000000e+00  0.000000e+00 0.000000e+00 0.000000e+00  0.000000e+00 0.000000e+00 0.000000e+00  0.000000e+00 0.000000e+00 0.000000e+00  1.183373e+00 5.576355e-04 0.000000e+00  1.216733e+00 1.440088e-04 0.000000e+00  1.183312e+00 -1.058197e-03 0.000000e+00  0.000000e+00 0.000000e+00 0.000000e+00  0.000000e+00 0.000000e+00 0.000000e+00  0.000000e+00 0.000000e+00 0.000000e+00  0.000000e+00 0.000000e+00 0.000000e+00  0.000000e+00 0.000000e+00 0.000000e+00  0.000000e+00 0.000000e+00 0.000000e+00  0.000000e+00 0.000000e+00 0.000000e+00  0.000000e+00 0.000000e+00 0.000000e+00  0.000000e+00 0.000000e+00 0.000000e+00  0.000000e+00 0.000000e+00 0.000000e+00  0.000000e+00 0.000000e+00 0.000000e+00  0.000000e+00 0.000000e+00 0.000000e+00  0.000000e+00 0.000000e+00 0.000000e+00  0.000000e+00 0.000000e+00 0.000000e+00  0.000000e+00 0.000000e+00 0.000000e+00  0.000000e+00 0.000000e+00 0.000000e+00  0.000000e+00 0.000000e+00 0.000000e+00  0.000000e+00 0.000000e+00 0.000000e+00  0.000000e+00 0.000000e+00 0.000000e+00  0.000000e+00 0.000000e+00 0.000000e+00  0.000000e+00 0.000000e+00 0.000000e+00  1.125000e+00 0.000000e+00 0.000000e+00  1.500000e+00 0.000000e+00 0.000000e+00  1.125000e+00 0.000000e+00 0.000000e+00  -5.000023e-01 -8.660241e-01 0.000000e+00  -8.660241e-01 -5.000023e-01 0.000000e+00  -8.660241e-01 5.000023e-01 0.000000e+00  -5.000023e-01 8.660241e-01 0.000000e+00  5.000023e-01 8.660241e-01 0.000000e+00  8.660241e-01 5.000023e-01 0.000000e+00  8.660241e-01 -5.000023e-01 0.000000e+00  5.000023e-01 -8.660241e-01 0.000000e+00  8.404500e-01 6.848573e-02 0.000000e+00  1.365123e+00 8.724674e-02 0.000000e+00  1.384409e+00 3.342947e-02 0.000000e+00  1.509370e+00 1.210760e-01 0.000000e+00  1.220288e+00 -4.245399e-02 0.000000e+00  1.246609e+00 -2.158728e-01 0.000000e+00  1.247680e+00 -6.770568e-02 0.000000e+00  1.256984e+00 -5.120956e-01 0.000000e+00  1.242473e+00 -6.888052e-02 0.000000e+00  1.392380e+00 1.960895e-01 0.000000e+00  1.231303e+00 -4.739976e-02 0.000000e+00  1.073840e+00 6.522649e-02 0.000000e+00  1.230058e+00 -2.140714e-02 0.000000e+00  1.211689e+00 -9.846707e-03 0.000000e+00  1.214557e+00 -2.224832e-03 0.000000e+00  2.091335e+00 -8.136478e-03 0.000000e+00  1.665232e+00 2.595662e-01 0.000000e+00  1.215454e+00 -4.308751e-04 0.000000e+00  1.132939e+00 -1.068293e-03 0.000000e+00  1.285393e+00 8.463681e-02 0.000000e+00  1.242960e+00 -2.006236e-01 0.000000e+00  8.925286e-01 1.056885e-01 0.000000e+00  -3.172875e-01 4.383129e-01 0.000000e+00  4.278182e-01 9.537261e-02 0.000000e+00  1.770154e-01 2.092948e-01 0.000000e+00  4.362126e-02 1.134865e-01 0.000000e+00  1.121849e+00 -1.600641e-03 0.000000e+00  1.196488e+00 -1.378508e-03 0.000000e+00  1.200990e+00 -1.497506e-03 0.000000e+00  1.100883e+00 -2.645738e-02 0.000000e+00  1.258574e+00 -9.409068e-03 0.000000e+00  1.697916e+00 -2.478809e-01 0.000000e+00  1.308218e+00 -2.023919e-02 0.000000e+00  1.370670e+00 -1.145895e-01 0.000000e+00  9.466608e-01 -6.692835e-02 0.000000e+00  1.341352e+00 5.757234e-02 0.000000e+00  1.137506e+00 3.000506e-03 0.000000e+00  1.438837e+00 -3.687172e-02 0.000000e+00  1.196559e+00 -2.267032e-05 0.000000e+00  1.192883e+00 -3.151298e-03 0.000000e+00  1.170837e+00 -3.374688e-03 0.000000e+00  9.497882e-01 -4.107461e-02 0.000000e+00  1.149532e+00 -1.300597e-02 0.000000e+00  1.084191e+00 5.678051e-02 0.000000e+00  1.104551e+00 -2.437289e-02 0.000000e+00  9.357370e-01 9.117952e-02 0.000000e+00  1.045155e+00 -3.671532e-02 0.000000e+00  8.003273e-01 -1.676005e-01 0.000000e+00  1.113990e+00 -3.714764e-02 0.000000e+00  1.187465e+00 -1.795393e-03 0.000000e+00  8.410110e-01 -8.412364e-01 0.000000e+00  8.694229e-01 3.578737e-01 0.000000e+00  1.279169e+00 2.183574e-02 0.000000e+00  1.551333e+00 -3.355190e-01 0.000000e+00  1.710576e+00 7.045285e-01 0.000000e+00  1.213524e+00 1.825471e-04 0.000000e+00  1.217989e+00 -4.165394e-03 0.000000e+00  1.203617e+00 -2.990976e-01 0.000000e+00  1.461244e+00 1.525980e-01 0.000000e+00  -2.530355e-01 2.621046e-01 0.000000e+00  1.526485e+00 1.196883e-01 0.000000e+00  7.773325e-01 3.988351e-03 0.000000e+00  1.312148e+00 -8.755922e-02 0.000000e+00  1.273881e+00 -2.251063e-02 0.000000e+00  1.151385e+00 7.137900e-03 0.000000e+00  1.041734e+00 -6.840490e-03 0.000000e+00  1.441076e+00 2.651204e-01 0.000000e+00  1.051447e+00 -8.598163e-03 0.000000e+00  1.810647e+00 6.276691e-01 0.000000e+00  1.423729e+00 3.315019e-01 0.000000e+00  1.445178e+00 4.947316e-02 0.000000e+00  1.116758e+00 2.031313e-03 0.000000e+00  8.099466e-01 -4.664182e-02 0.000000e+00  1.344716e+00 2.302494e-01 0.000000e+00  2.107290e+00 5.050862e-01 0.000000e+00  1.912385e+00 4.509363e-01 0.000000e+00  2.046306e+00 -1.587301e-01 0.000000e+00  1.789435e+00 -9.847944e-01 0.000000e+00  1.304632e+00 4.376812e-01 0.000000e+00  6.603746e-01 4.508432e-01 0.000000e+00  1.167274e+00 -2.466489e-01 0.000000e+00  7.626047e-01 -3.975536e-02 0.000000e+00  7.284808e-01 7.503777e-02 0.000000e+00  1.001971e+00 1.008337e-02 0.000000e+00  1.208598e+00 -1.277311e-04 0.000000e+00  1.216014e+00 -3.133855e-04 0.000000e+00  1.215368e+00 -2.851869e-05 0.000000e+00  7.819325e-01 -2.976598e-04 0.000000e+00  7.854054e-01 -1.504210e-03 0.000000e+00  0.000000e+00 0.000000e+00 0.000000e+00  9.191002e-01 -3.340638e-02 0.000000e+00  7.419418e-01 -9.076062e-02 0.000000e+00  0.000000e+00 0.000000e+00 0.000000e+00  5.579371e-01 7.010161e-02 0.000000e+00  4.882985e-01 2.932453e-02 0.000000e+00  0.000000e+00 0.000000e+00 0.000000e+00  1.025537e+00 4.947411e-02 0.000000e+00  6.562500e-01 0.000000e+00 0.000000e+00  1.935895e+00 1.869348e-01 0.000000e+00  1.319635e+00 2.421209e-02 0.000000e+00  1.507527e+00 -4.672007e-02 0.000000e+00  1.160318e+00 1.331068e-01 0.000000e+00  1.274053e+00 5.269669e-02 0.000000e+00  7.077860e-01 1.748398e-01 0.000000e+00  1.323422e-01 3.574981e-01 0.000000e+00  1.533416e+00 -1.152399e-01 0.000000e+00  1.934528e+00 3.826026e-01 0.000000e+00  1.314300e+00 1.711887e-01 0.000000e+00  1.211887e+00 -7.065846e-04 0.000000e+00  1.214934e+00 -1.667075e-03 0.000000e+00  1.215638e+00 -1.010952e-03 0.000000e+00  1.167200e+00 -1.544154e-03 0.000000e+00  9.129658e-01 -1.893284e-03 0.000000e+00  1.210377e+00 -2.892646e-03 0.000000e+00  1.209395e+00 -1.056546e-03 0.000000e+00  1.111775e+00 -5.987726e-01 0.000000e+00  5.638094e-01 -8.371731e-01 0.000000e+00  1.239109e+00 -5.358091e-01 0.000000e+00  1.214954e+00 -1.505718e-04 0.000000e+00  1.207214e+00 3.681800e-04 0.000000e+00  1.214296e+00 5.067787e-04 0.000000e+00  1.212290e+00 -5.337443e-03 0.000000e+00  1.217530e+00 -6.822926e-03 0.000000e+00  1.206795e+00 -6.594106e-03 0.000000e+00  1.222509e+00 -3.514693e-03 0.000000e+00  1.223605e+00 -7.415668e-03 0.000000e+00  1.603320e+00 4.011202e-01 0.000000e+00  1.566074e+00 6.893090e-01 0.000000e+00  9.692248e-01 1.428567e-01 0.000000e+00  1.940647e+00 -2.748963e-01 0.000000e+00  2.036321e+00 -4.576270e-01 0.000000e+00  8.558718e-01 7.914603e-01 0.000000e+00  6.441237e-01 5.532921e-01 0.000000e+00  -7.071068e-01 -7.071068e-01 0.000000e+00  6.209134e-02 1.542275e-01 0.000000e+00  -2.515298e-02 1.209997e-01 0.000000e+00  2.588197e-01 9.659256e-01 0.000000e+00  -1.624122e-02 3.844625e-01 0.000000e+00  1.462834e+00 1.169781e-01 0.000000e+00  1.555274e+00 1.150028e-01 0.000000e+00  1.521807e+00 9.566730e-02 0.000000e+00  1.094385e+00 -5.555773e-02 0.000000e+00  1.247665e+00 -2.208570e-02 0.000000e+00  1.330430e+00 -5.956545e-03 0.000000e+00  9.290742e-01 -5.593969e-02 0.000000e+00  1.040508e+00 -6.244676e-02 0.000000e+00  5.321831e-01 9.432774e-03 0.000000e+00  5.583167e-01 4.455553e-03 0.000000e+00  0.000000e+00 0.000000e+00 0.000000e+00  1.346088e+00 3.306655e-02 0.000000e+00  1.380879e+00 1.116216e-01 0.000000e+00  1.405605e+00 2.055150e-02 0.000000e+00  1.152743e+00 3.113909e-02 0.000000e+00  1.131854e+00 -1.398491e-01 0.000000e+00  6.071895e-01 3.114545e-03 0.000000e+00  7.513383e-01 -7.739887e-03 0.000000e+00  7.289607e-01 -1.087774e-02 0.000000e+00  0.000000e+00 0.000000e+00 0.000000e+00  1.066623e+00 -6.600116e-02 0.000000e+00  1.228386e+00 -5.666315e-02 0.000000e+00  9.983936e-01 -3.888393e-02 0.000000e+00  1.098059e+00 -6.742936e-02 0.000000e+00  8.340275e-01 -9.493902e-03 0.000000e+00  6.052251e-01 -1.054912e-02 0.000000e+00  0.000000e+00 0.000000e+00 0.000000e+00  8.203658e-01 -3.204747e-01 0.000000e+00  1.153738e+00 -4.291231e-01 0.000000e+00  9.614618e-01 -1.068835e-01 0.000000e+00  5.954754e-01 -3.460477e-01 0.000000e+00  5.788951e-01 -3.063021e-02 0.000000e+00  8.531008e-01 -6.668465e-03 0.000000e+00  0.000000e+00 0.000000e+00 0.000000e+00  1.120645e+00 -6.254843e-02 0.000000e+00  1.244318e+00 -7.339085e-02 0.000000e+00  1.076627e+00 -3.113936e-02 0.000000e+00  1.140841e+00 -5.425716e-02 0.000000e+00  8.743738e-01 -5.067590e-03 0.000000e+00  1.215055e+00 -1.913031e-03 0.000000e+00  1.215428e+00 -3.538969e-03 0.000000e+00  9.234137e-01 1.306961e-03 0.000000e+00  9.227825e-01 1.001740e-03 0.000000e+00  0.000000e+00 0.000000e+00 0.000000e+00  1.231580e+00 -9.060248e-03 0.000000e+00  1.217600e+00 -1.565984e-02 0.000000e+00  7.497965e-01 -4.830838e-04 0.000000e+00  7.477027e-01 1.652640e-04 0.000000e+00  0.000000e+00 0.000000e+00 0.000000e+00  1.170807e+00 -2.047350e-03 0.000000e+00  1.239853e+00 -9.900708e-03 0.000000e+00  8.577457e-01 3.318050e-03 0.000000e+00  8.599410e-01 1.478601e-03 0.000000e+00  0.000000e+00 0.000000e+00 0.000000e+00  1.162399e+00 -1.184651e-03 0.000000e+00  1.255556e+00 -1.517955e-02 0.000000e+00  1.280514e+00 -2.574533e-02 0.000000e+00  1.232075e+00 -3.297531e-02 0.000000e+00  1.455724e+00 -6.925146e-03 0.000000e+00  1.406564e+00 -1.172381e-01 0.000000e+00  0.000000e+00 0.000000e+00 0.000000e+00  1.284488e+00 7.498126e-01 0.000000e+00  1.612924e+00 4.497613e-01 0.000000e+00  8.868475e-01 4.344304e-03 0.000000e+00  8.869169e-01 4.318022e-03 0.000000e+00  0.000000e+00 0.000000e+00 0.000000e+00  1.225912e+00 -3.948647e-03 0.000000e+00  1.306578e+00 -3.597669e-02 0.000000e+00  1.336181e+00 -4.599323e-02 0.000000e+00  1.237086e+00 -5.917676e-02 0.000000e+00  1.143096e+00 -9.826199e-02 0.000000e+00  1.010726e+00 -3.062200e-02 0.000000e+00  0.000000e+00 0.000000e+00 0.000000e+00  1.586535e+00 -2.571929e-01 0.000000e+00  1.780582e+00 4.397848e-02 0.000000e+00  1.731649e+00 -1.983856e-01 0.000000e+00  1.328768e+00 -2.986122e-01 0.000000e+00  8.545055e-01 9.858886e-04 0.000000e+00  8.488245e-01 1.504375e-03 0.000000e+00  0.000000e+00 0.000000e+00 0.000000e+00  1.281992e+00 -1.486183e-02 0.000000e+00  1.376517e+00 -5.411510e-02 0.000000e+00  1.401121e+00 -5.703071e-02 0.000000e+00  1.027767e+00 2.453964e-02 0.000000e+00  1.002870e+00 6.862916e-03 0.000000e+00  0.000000e+00 0.000000e+00 0.000000e+00  1.564083e+00 -1.709032e-01 0.000000e+00  1.475390e+00 -3.011044e-01 0.000000e+00  1.327861e+00 -2.567297e-01 0.000000e+00  8.180713e-01 5.402113e-03 0.000000e+00  8.060222e-01 -2.375975e-03 0.000000e+00  0.000000e+00 0.000000e+00 0.000000e+00  1.167746e+00 -3.114446e-02 0.000000e+00  4.773861e-01 -5.718338e-02 0.000000e+00  0.000000e+00 0.000000e+00 0.000000e+00  5.626270e-01 -1.734695e-01 0.000000e+00  7.811243e-01 -1.340656e-01 0.000000e+00  4.321023e-01 -5.140273e-02 0.000000e+00  8.839724e-01 -2.286523e-03 0.000000e+00  0.000000e+00 0.000000e+00 0.000000e+00  1.158498e+00 -4.377594e-02 0.000000e+00  1.130029e+00 -1.787449e-02 0.000000e+00  1.174418e+00 -3.331157e-02 0.000000e+00  9.030449e-01 -2.386284e-03 0.000000e+00  9.072608e-01 -7.119144e-04 0.000000e+00  0.000000e+00 0.000000e+00 0.000000e+00  1.192169e+00 -2.361544e-02 0.000000e+00  1.161286e+00 -7.943633e-03 0.000000e+00  1.199440e+00 -1.557334e-02 0.000000e+00  9.070543e-01 1.726291e-03 0.000000e+00  9.075509e-01 1.393510e-03 0.000000e+00  0.000000e+00 0.000000e+00 0.000000e+00  1.200502e+00 -8.013772e-03 0.000000e+00  1.182552e+00 -2.952152e-03 0.000000e+00  9.766828e-01 -2.363731e-04 0.000000e+00  9.395595e-01 -2.348483e-03 0.000000e+00  9.273638e-01 -7.708230e-03 0.000000e+00  0.000000e+00 0.000000e+00 0.000000e+00  1.355236e+00 -2.849899e-02 0.000000e+00  1.404083e+00 -6.859749e-03 0.000000e+00  1.366909e+00 -5.040898e-02 0.000000e+00  1.420130e+00 -3.969061e-02 0.000000e+00  9.140402e-01 -1.628215e-03 0.000000e+00  0.000000e+00 0.000000e+00 0.000000e+00  1.192588e+00 -2.400561e-03 0.000000e+00  1.212575e+00 -3.707236e-03 0.000000e+00  1.351677e+00 -1.240198e-01 0.000000e+00  1.109210e+00 -1.239624e-01 0.000000e+00  0.000000e+00 0.000000e+00 0.000000e+00  1.116977e+00 2.443187e-01 0.000000e+00  1.288786e+00 2.410634e-01 0.000000e+00  0.000000e+00 0.000000e+00 0.000000e+00  5.817090e-01 3.137863e-01 0.000000e+00  1.115159e+00 2.851785e-01 0.000000e+00  1.701030e+00 3.840860e-01 0.000000e+00  8.862179e-01 -5.507327e-02 0.000000e+00  0.000000e+00 0.000000e+00 0.000000e+00  1.131012e+00 -3.509074e-01 0.000000e+00  1.888595e+00 -5.512859e-01 0.000000e+00  9.273403e-01 -3.122080e-01 0.000000e+00  8.714495e-01 -1.084737e-01 0.000000e+00  1.284068e+00 -3.041241e-02 0.000000e+00  1.186344e+00 1.888446e-01 0.000000e+00  1.140523e+00 1.066739e-01 0.000000e+00  0.000000e+00 0.000000e+00 0.000000e+00  9.610658e-01 1.058698e-01 0.000000e+00  1.125541e+00 3.557569e-02 0.000000e+00  0.000000e+00 0.000000e+00 0.000000e+00  -1.607528e-01 3.139124e-01 0.000000e+00  -2.330805e-01 3.977390e-01 0.000000e+00  -2.001875e-01 3.062461e-01 0.000000e+00  -3.116104e-01 3.241602e-01 0.000000e+00  1.071142e+00 2.752612e-02 0.000000e+00  1.249405e+00 8.975018e-02 0.000000e+00  9.101822e-01 4.253059e-02 0.000000e+00  1.324076e+00 -1.389412e-01 0.000000e+00  1.437508e+00 3.565510e-02 0.000000e+00  1.097757e+00 -3.756751e-02 0.000000e+00  1.217115e+00 -1.510340e-01 0.000000e+00  7.480066e-01 -5.932575e-03 0.000000e+00  7.341025e-01 -4.217305e-03 0.000000e+00  0.000000e+00 0.000000e+00 0.000000e+00  7.131742e-01 -5.415767e-04 0.000000e+00  7.071096e-01 -2.109109e-03 0.000000e+00  0.000000e+00 0.000000e+00 0.000000e+00  1.143353e+00 8.395627e-03 0.000000e+00  6.631271e-01 -2.576664e-03 0.000000e+00  6.634256e-01 -1.317822e-02 0.000000e+00  0.000000e+00 0.000000e+00 0.000000e+00  1.135989e+00 -1.805575e-03 0.000000e+00  8.989077e-01 -1.125118e-03 0.000000e+00  1.093362e+00 -3.712672e-03 0.000000e+00  1.792481e+00 4.555394e-01 0.000000e+00  1.214191e+00 2.524942e-01 0.000000e+00  1.858540e+00 2.485784e-01 0.000000e+00  5.936701e-01 -7.696941e-04 0.000000e+00  5.914770e-01 1.031636e-03 0.000000e+00  0.000000e+00 0.000000e+00 0.000000e+00  1.385076e+00 -3.181367e-02 0.000000e+00  1.212748e+00 -1.350116e-02 0.000000e+00  1.335675e+00 2.013201e-02 0.000000e+00  1.047799e+00 2.576564e-02 0.000000e+00  1.169006e+00 -1.667385e-02 0.000000e+00  1.423135e+00 -3.120571e-02 0.000000e+00  1.193784e+00 -4.387155e-04 0.000000e+00  1.200388e+00 -1.020858e-03 0.000000e+00  -1.289033e-01 1.212010e-01 0.000000e+00  -1.449427e-01 3.096481e-01 0.000000e+00  -2.588197e-01 9.659256e-01 0.000000e+00  -3.635662e-01 2.622351e-01 0.000000e+00  1.216145e+00 -5.249373e-04 0.000000e+00  1.213685e+00 -1.466636e-03 0.000000e+00  4.535906e-01 -5.138207e-03 0.000000e+00  4.504429e-01 1.726609e-03 0.000000e+00  0.000000e+00 0.000000e+00 0.000000e+00  1.068823e+00 6.077306e-02 0.000000e+00  1.219321e+00 1.525327e-02 0.000000e+00  1.165852e+00 9.703392e-02 0.000000e+00  4.371349e-01 2.852811e-02 0.000000e+00  0.000000e+00 0.000000e+00 0.000000e+00  5.704563e-01 8.765005e-02 0.000000e+00  1.405544e+00 -2.595853e-03 0.000000e+00  1.337171e+00 -1.235415e-02 0.000000e+00  1.331735e+00 5.517573e-02 0.000000e+00  1.061069e+00 2.074171e-01 0.000000e+00  1.809852e+00 4.102694e-01 0.000000e+00  1.555046e+00 3.210770e-01 0.000000e+00  1.051649e+00 1.294273e-01 0.000000e+00  1.377613e+00 1.158984e-01 0.000000e+00  1.415098e+00 5.629758e-02 0.000000e+00  1.517917e+00 1.158713e-01 0.000000e+00  1.609700e+00 4.685184e-01 0.000000e+00  3.425036e-01 1.449201e-01 0.000000e+00  -1.208702e-01 2.301993e-01 0.000000e+00  -7.071068e-01 7.071068e-01 0.000000e+00  1.505656e+00 1.664534e-01 0.000000e+00  1.740851e+00 8.770668e-02 0.000000e+00  7.535946e-01 1.189969e-03 0.000000e+00  7.530348e-01 6.373144e-04 0.000000e+00  0.000000e+00 0.000000e+00 0.000000e+00  1.170757e+00 1.050375e-03 0.000000e+00  9.603165e-01 3.049692e-03 0.000000e+00  1.168602e+00 1.376907e-03 0.000000e+00  1.215177e+00 -1.275308e-03 0.000000e+00  1.178250e+00 -3.856297e-02 0.000000e+00  1.419084e+00 4.726727e-02 0.000000e+00  5.568096e-01 -2.273416e-02 0.000000e+00  5.155106e-01 -1.767621e-02 0.000000e+00  0.000000e+00 0.000000e+00 0.000000e+00  7.840319e-01 -2.009054e-02 0.000000e+00  1.045146e+00 -1.209100e-02 0.000000e+00  1.175554e+00 -2.158875e-02 0.000000e+00  8.840457e-01 -6.417023e-02 0.000000e+00  1.447003e+00 2.417000e-01 0.000000e+00  9.051647e-01 1.185104e-01 0.000000e+00  7.215121e-01 8.321457e-02 0.000000e+00  0.000000e+00 0.000000e+00 0.000000e+00  1.393031e+00 2.031929e-01 0.000000e+00  8.672681e-01 9.227219e-02 0.000000e+00  1.622713e+00 3.415287e-01 0.000000e+00  1.756903e+00 3.105298e-01 0.000000e+00  1.999657e+00 4.650711e-01 0.000000e+00  1.856624e+00 3.107501e-01 0.000000e+00  2.298195e+00 1.619665e-01 0.000000e+00  2.640497e+00 -5.239289e-02 0.000000e+00  1.672077e+00 6.516340e-01 0.000000e+00  7.012353e-01 -1.380308e-02 0.000000e+00  0.000000e+00 0.000000e+00 0.000000e+00  7.410164e-01 -2.790022e-02 0.000000e+00  1.795481e+00 2.443088e-02 0.000000e+00  6.948159e-01 -3.425185e-02 0.000000e+00  0.000000e+00 0.000000e+00 0.000000e+00  1.173930e+00 4.864660e-03 0.000000e+00  1.660764e+00 -2.992798e-01 0.000000e+00  1.461455e+00 -7.950674e-03 0.000000e+00  1.406250e+00 0.000000e+00 0.000000e+00  7.393200e-01 2.859446e-01 0.000000e+00  7.277870e-01 2.793356e-01 0.000000e+00  7.071068e-01 7.071068e-01 0.000000e+00  1.278287e+00 4.505193e-01 0.000000e+00  9.473483e-01 -6.504335e-01 0.000000e+00  8.640711e-01 -4.406284e-01 0.000000e+00  2.588197e-01 -9.659256e-01 0.000000e+00  1.280096e+00 -8.331512e-01 0.000000e+00  1.525729e+00 -1.396118e+00 0.000000e+00  1.470348e+00 -1.363896e-01 0.000000e+00  1.176184e+00 5.221319e-01 0.000000e+00  1.208199e+00 2.737271e-01 0.000000e+00  3.899441e-01 3.856343e-01 0.000000e+00  -3.885007e-01 3.797078e-01 0.000000e+00  1.569655e+00 5.293445e-01 0.000000e+00  7.882321e-01 -1.336945e-01 0.000000e+00  6.695784e-01 -6.917100e-02 0.000000e+00  0.000000e+00 0.000000e+00 0.000000e+00  1.110391e+00 -1.116254e-01 0.000000e+00  6.562500e-01 0.000000e+00 0.000000e+00  1.071223e-02 -4.809439e-01 0.000000e+00  7.721091e-01 -5.454891e-02 0.000000e+00  1.695215e+00 1.133639e-01 0.000000e+00  1.061614e+00 2.029036e-01 0.000000e+00  -4.677809e-01 1.627550e-01 0.000000e+00  1.182772e+00 -2.512896e-01 0.000000e+00  1.396005e+00 -1.302733e-01 0.000000e+00  1.406250e+00 0.000000e+00 0.000000e+00  1.404567e+00 -5.465613e-01 0.000000e+00  1.580067e+00 -3.927818e-01 0.000000e+00  1.338716e+00 -3.894576e-01 0.000000e+00  2.045659e+00 -1.287347e+00 0.000000e+00  7.071068e-01 -7.071068e-01 0.000000e+00  1.659749e+00 4.002860e-01 0.000000e+00  -3.636561e-0