<?xml version="1.0"?>
<VTKFile type="UnstructuredGrid"  version="0.1"  >
<UnstructuredGrid>
<Piece  NumberOfPoints="525" NumberOfCells="924">
<Points>
<DataArray  type="Float32"  NumberOfComponents="3"  format="ascii">0 0 0  2.2 0 0  2.2 0.41 0  0 0.41 0  0.15 0.2 0  0.25 0.2 0  0.2 0.15 0  0.2 0.25 0  0.104762 0 0  0.209524 0 0  0.314286 0 0  0.419048 0 0  0.52381 0 0  0.628571 0 0  0.733333 0 0  0.838095 0 0  0.942857 0 0  1.04762 0 0  1.15238 0 0  1.25714 0 0  1.3619 0 0  1.46667 0 0  1.57143 0 0  1.67619 0 0  1.78095 0 0  1.88571 0 0  1.99048 0 0  2.09524 0 0  2.2 0.1025 0  2.2 0.205 0  2.2 0.3075 0  2.1 0.41 0  2 0.41 0  1.9 0.41 0  1.8 0.41 0  1.7 0.41 0  1.6 0.41 0  1.5 0.41 0  1.4 0.41 0  1.3 0.41 0  1.2 0.41 0  1.1 0.41 0  1 0.41 0  0.9 0.41 0  0.8 0.41 0  0.7 0.41 0  0.6 0.41 0  0.5 0.41 0  0.4 0.41 0  0.3 0.41 0  0.2 0.41 0  0.1 0.41 0  0 0.3075 0  0 0.205 0  0 0.1025 0  0.156699 0.225 0  0.175 0.243301 0  0.225 0.243301 0  0.243301 0.225 0  0.243301 0.175 0  0.225 0.156699 0  0.175 0.156699 0  0.156699 0.175 0  0.352033 0.262216 0  1.04579 0.252253 0  1.24065 0.243419 0  0.985775 0.171509 0  1.30324 0.187395 0  0.890988 0.190768 0  1.39085 0.202767 0  0.801464 0.204685 0  1.49904 0.204666 0  0.704267 0.202289 0  1.60238 0.204951 0  0.487789 0.19191 0  1.72935 0.219637 0  1.83335 0.187427 0  2.03359 0.193642 0  0.314663 0.307348 0  0.249039 0.333583 0  2.12147 0.253405 0  2.06373 0.0836837 0  0.0734726 0.267055 0  0.143989 0.0677174 0  0.0613613 0.33781 0  0.299628 0.236829 0  0.527114 0.295386 0  0.262384 0.26549 0  0.275777 0.18341 0  1.74578 0.330928 0  1.84001 0.302448 0  1.64998 0.313838 0  0.648421 0.302367 0  1.54544 0.308508 0  0.755686 0.306156 0  1.42668 0.314809 0  0.870524 0.298596 0  1.22553 0.112785 0  1.05603 0.147372 0  0.969346 0.329867 0  1.32527 0.276284 0  2.02914 0.29511 0  1.88168 0.119486 0  1.79545 0.104842 0  1.35688 0.0892539 0  1.69041 0.105324 0  0.914199 0.0955566 0  1.58234 0.102923 0  0.61843 0.10815 0  1.47999 0.101161 0  0.725217 0.104273 0  0.821727 0.102306 0  1.96725 0.105778 0  0.418624 0.241547 0  0.135226 0.239087 0  1.14921 0.314841 0  0.404508 0.333259 0  0.590155 0.206269 0  2.12554 0.150731 0  1.93166 0.22436 0  0.104689 0.190046 0  0.267856 0.0744753 0  0.269368 0.221581 0  0.434446 0.114927 0  1.0089 0.0793381 0  0.953023 0.246698 0  1.25853 0.33355 0  1.05268 0.340828 0  2.1369 0.067383 0  0.522398 0.112537 0  1.3421 0.348929 0  0.215186 0.289473 0  0.203197 0.335348 0  1.13984 0.190728 0  1.93813 0.330504 0  1.10505 0.0883705 0  0.341988 0.0824728 0  0.253113 0.138035 0  0.291932 0.131907 0  0.203713 0.102439 0  0.150375 0.134668 0  0.151494 0.309119 0  0.354384 0.17896 0  0.0685367 0.100776 0  0.424128 0.180088 0  0.474925 0.0568661 0  2.10843 0.347669 0  2.16073 0.280452 0  2.16073 0.229202 0  2.2 0.25625 0  2.07949 0.0418418 0  2.02711 0.0418418 0  2.04286 0 0  0.176756 0.0338587 0  0.124375 0.0338587 0  0.157143 0 0  0.0806807 0.373905 0  0.0306807 0.373905 0  0.05 0.41 0  0.0306807 0.322655 0  0 0.35875 0  0.281851 0.320466 0  0.27452 0.371791 0  0.307331 0.358674 0  0.067417 0.302432 0  0.0367363 0.287277 0  0.307146 0.272089 0  0.325831 0.249523 0  0.333348 0.284782 0  0.255711 0.299536 0  0.288524 0.286419 0  2.07531 0.274257 0  2.03137 0.244376 0  2.07753 0.223523 0  2.01549 0.0947309 0  1.97886 0.052889 0  2.00042 0.14971 0  2.04866 0.138663 0  0.472869 0.268466 0  0.453206 0.216728 0  0.507451 0.243648 0  2.16277 0.177866 0  2.16277 0.126615 0  2.2 0.15375 0  1.90667 0.171923 0  1.88251 0.205894 0  1.85752 0.153456 0  1.88583 0.263404 0  1.83668 0.244938 0  0.604293 0.15721 0  0.647211 0.204279 0  0.661349 0.15522 0  0.359586 0.320304 0  0.37827 0.297737 0  0.155113 0.241194 0  0.145962 0.232044 0  0.164645 0.235355 0  0.259539 0.179205 0  0.262888 0.191705 0  0.248296 0.187059 0  0.281006 0.251159 0  1.0209 0.15944 0  1.05091 0.199813 0  1.01578 0.211881 0  1.26438 0.15009 0  1.23309 0.178102 0  1.27195 0.215407 0  1.29121 0.101019 0  1.33006 0.138324 0  0.928528 0.0477783 0  0.876147 0.0477783 0  0.890476 0 0  0.902594 0.143162 0  0.949987 0.133533 0  0.938381 0.181138 0  0.867963 0.0989313 0  0.856357 0.146537 0  0.829911 0.051153 0  1.41178 0.0446269 0  1.35939 0.0446269 0  1.41429 0 0  1.37386 0.14601 0  1.34705 0.195081 0  1.41844 0.0952074 0  1.43542 0.151964 0  1.47333 0.0505805 0  0.77753 0.051153 0  0.785714 0 0  0.811595 0.153496 0  0.846226 0.197726 0  0.773472 0.10329 0  0.76334 0.154479 0  0.729275 0.0521365 0  1.52571 0.0505805 0  1.51905 0 0  1.48951 0.152913 0  1.44494 0.203716 0  1.53117 0.102042 0  1.54069 0.153795 0  1.57689 0.0514615 0  1.9804 0.259735 0  1.98262 0.209001 0  1.82001 0.356224 0  1.87 0.356224 0  1.85 0.41 0  1.78468 0.261043 0  1.78135 0.203532 0  1.72289 0.370464 0  1.77289 0.370464 0  1.75 0.41 0  1.7929 0.316688 0  1.73757 0.275282 0  1.62499 0.361919 0  1.67499 0.361919 0  1.65 0.41 0  1.69788 0.322383 0  1.68966 0.266738 0  1.62618 0.259394 0  1.66586 0.212294 0  0.624211 0.356183 0  0.674211 0.356183 0  0.65 0.41 0  0.619288 0.254318 0  0.676344 0.252328 0  1.52272 0.359254 0  1.57272 0.359254 0  1.55 0.41 0  1.59771 0.311173 0  1.57391 0.256729 0  1.52224 0.256587 0  1.55071 0.204809 0  0.727843 0.358078 0  0.777843 0.358078 0  0.75 0.41 0  0.702053 0.304261 0  0.729977 0.254223 0  0.778575 0.25542 0  0.752865 0.203487 0  1.41334 0.362405 0  1.46334 0.362405 0  1.45 0.41 0  1.48606 0.311659 0  1.46286 0.259738 0  1.40876 0.258788 0  0.835262 0.354298 0  0.885262 0.354298 0  0.85 0.41 0  0.813105 0.302376 0  0.835994 0.25164 0  0.880756 0.244682 0  0.934673 0.369934 0  0.984673 0.369934 0  0.95 0.41 0  0.919935 0.314231 0  0.676894 0.0521365 0  0.680952 0 0  0.714742 0.153281 0  0.671824 0.106212 0  0.623501 0.054075 0  1.62927 0.0514615 0  1.62381 0 0  1.59236 0.153937 0  1.63638 0.104124 0  1.6464 0.155137 0  1.6833 0.052662 0  1.73568 0.052662 0  1.72857 0 0  1.70988 0.16248 0  1.74293 0.105083 0  1.7624 0.16224 0  1.7882 0.052421 0  1.84058 0.052421 0  1.83333 0 0  1.8144 0.146135 0  1.83857 0.112164 0  1.88369 0.059743 0  1.12461 0.36242 0  1.17461 0.36242 0  1.15 0.41 0  1.31425 0.231839 0  1.28296 0.259852 0  1.35806 0.239526 0  1.37597 0.295546 0  1.92648 0.052889 0  1.9381 0 0  1.92447 0.112632 0  1.94945 0.165069 0  0.352254 0.37163 0  0.402254 0.37163 0  0.35 0.41 0  0.513557 0.352693 0  0.563557 0.352693 0  0.55 0.41 0  0.587767 0.298876 0  0.558634 0.250827 0  0.538972 0.19909 0  0.452254 0.37163 0  0.45 0.41 0  0.465811 0.314323 0  0.411566 0.287403 0  0.385328 0.251881 0  0.119958 0.214566 0  0.0890808 0.22855 0  0.104349 0.253071 0  0.22452 0.371791 0  0.25 0.41 0  0.291071 0.0372376 0  0.23869 0.0372376 0  0.261905 0 0  0.265876 0.243536 0  0.256335 0.223291 0  0.252842 0.245245 0  0.284498 0.229205 0  1.03246 0.113355 0  0.997337 0.125424 0  0.961549 0.0874474 0  0.922006 0.218733 0  0.969399 0.209103 0  0.961184 0.288282 0  0.911774 0.272647 0  1.22926 0.371775 0  1.27927 0.371775 0  1.25 0.41 0  1.02634 0.375414 0  1.07634 0.375414 0  1.05 0.41 0  1.01101 0.335348 0  2.11607 0.0336915 0  2.16845 0.0336915 0  2.14762 0 0  2.16845 0.0849415 0  2.2 0.05125 0  2.10032 0.0755333 0  0.556277 0.159403 0  0.570414 0.110343 0  0.505093 0.152224 0  1.32105 0.379464 0  1.37105 0.379464 0  1.35 0.41 0  1.33369 0.312607 0  1.38439 0.331869 0  0.999406 0.249476 0  1.00757 0.29106 0  1.30031 0.34124 0  1.2919 0.304917 0  2.13122 0.109057 0  2.09464 0.117207 0  0.272572 0.202495 0  0.259684 0.21079 0  0.248296 0.212941 0  0.287702 0.21012 0  2.1235 0.202068 0  2.07956 0.172187 0  1.02826 0.039669 0  0.975878 0.039669 0  0.995238 0 0  1.04923 0.29654 0  1.10095 0.327835 0  1.0975 0.283547 0  0.57112 0.054075 0  0.576191 0 0  0.523104 0.0562685 0  1.24959 0.288485 0  1.20387 0.324195 0  1.19493 0.27913 0  0.238785 0.277481 0  0.232112 0.311528 0  0.226118 0.334465 0  0.201599 0.372674 0  1.14453 0.252784 0  1.19024 0.217074 0  1.09281 0.221491 0  0.209191 0.31241 0  0.220093 0.266387 0  0.243692 0.254395 0  0.235355 0.235355 0  0.478422 0.113732 0  0.461117 0.153419 0  1.91906 0.370252 0  1.96907 0.370252 0  1.95 0.41 0  1.98364 0.312807 0  2.01457 0.352555 0  1.88907 0.316476 0  1.9349 0.277432 0  1.18268 0.151757 0  1.09794 0.16905 0  1.12872 0.0441853 0  1.07634 0.0441853 0  1.1 0 0  1.05697 0.0838543 0  1.08054 0.117871 0  1.12244 0.139549 0  1.16529 0.100578 0  0.304922 0.078474 0  0.328137 0.0412364 0  0.380518 0.0412364 0  0.366667 0 0  0.388217 0.0986999 0  0.426747 0.0574635 0  0.31696 0.10719 0  0.279894 0.103191 0  0.272523 0.134971 0  0.260485 0.106255 0  0.228413 0.120237 0  0.214357 0.129569 0  0.239057 0.147367 0  1.30701 0.0446269 0  1.30952 0 0  1.24133 0.0563925 0  0.235785 0.0884571 0  1.18895 0.0563925 0  1.20476 0 0  0.206618 0.0512195 0  0.173851 0.0850782 0  0.0367363 0.236028 0  0 0.25625 0  0.264445 0.160722 0  0.248207 0.156517 0  0.235355 0.164645 0  0.283855 0.157658 0  0.130694 0.182523 0  0.127344 0.195023 0  0.151704 0.187059 0  0.127532 0.162357 0  0.153537 0.154834 0  0.0523445 0.197523 0  0.14336 0.274103 0  0.112483 0.288087 0  0.31508 0.181185 0  0.327006 0.207895 0  0.323158 0.155434 0  0.0866493 0.050388 0  0.0342684 0.050388 0  0.052381 0 0  0.0342684 0.101638 0  0 0.05125 0  0.421376 0.210817 0  0.455958 0.185999 0  0.429287 0.147508 0  0.106428 0.323464 0  0.353208 0.220588 0  0.106263 0.0842467 0  0.0342684 0.152888 0  0 0.15375 0  0.109456 0.117722 0  0.147182 0.101193 0  0.0866129 0.145411 0  0.162687 0.145684 0  0.164645 0.164645 0  0.348186 0.130716 0  0.386504 0.210254 0  0.389256 0.179524 0  0.394415 0.146944 0  0.125747 0.359559 0  0.175747 0.359559 0  0.15 0.41 0  0.177345 0.322233 0  0.142613 0.219544 0  0.151704 0.212941 0  0.499367 0.0284331 0  0.446986 0.0284331 0  0.471429 0 0  0.498661 0.0847016 0  0.454685 0.0858966 0  0.201856 0.126219 0  0.212941 0.151704 0  0.18334 0.299296 0  0.175187 0.142334 0  0.187059 0.151704 0  0.177044 0.118554 0  2.15421 0.327585 0  2.15421 0.378834 0  2.2 0.35875 0  2.10421 0.378834 0  2.15 0.41 0  2.05422 0.378
[...]
<PointData  Vectors="u"> 
<DataArray  type="Float32"  Name="u"  NumberOfComponents="3" format="ascii">0.000000e+00 0.000000e+00 0.000000e+00  0.000000e+00 0.000000e+00 0.000000e+00  0.000000e+00 0.000000e+00 0.000000e+00  0.000000e+00 0.000000e+00 0.000000e+00  0.000000e+00 -1.000000e+00 0.000000e+00  0.000000e+00 1.000000e+00 0.000000e+00  1.000000e+00 0.000000e+00 0.000000e+00  -1.000000e+00 0.000000e+00 0.000000e+00  0.000000e+00 0.000000e+00 0.000000e+00  0.000000e+00 0.000000e+00 0.000000e+00  0.000000e+00 0.000000e+00 0.000000e+00  0.000000e+00 0.000000e+00 0.000000e+00  0.000000e+00 0.000000e+00 0.000000e+00  0.000000e+00 0.000000e+00 0.000000e+00  0.000000e+00 0.000000e+00 0.000000e+00  0.000000e+00 0.000000e+00 0.000000e+00  0.000000e+00 0.000000e+00 0.000000e+00  0.000000e+00 0.000000e+00 0.000000e+00  0.000000e+00 0.000000e+00 0.000000e+00  0.000000e+00 0.000000e+00 0.000000e+00  0.000000e+00 0.000000e+00 0.000000e+00  0.000000e+00 0.000000e+00 0.000000e+00  0.000000e+00 0.000000e+00 0.000000e+00  0.000000e+00 0.000000e+00 0.000000e+00  0.000000e+00 0.000000e+00 0.000000e+00  0.000000e+00 0.000000e+00 0.000000e+00  0.000000e+00 0.000000e+00 0.000000e+00  0.000000e+00 0.000000e+00 0.000000e+00  1.079705e+00 -9.773466e-02 0.000000e+00  1.574216e+00 -2.641971e-01 0.000000e+00  1.077619e+00 -7.282943e-02 0.000000e+00  0.000000e+00 0.000000e+00 0.000000e+00  0.000000e+00 0.000000e+00 0.000000e+00  0.000000e+00 0.000000e+00 0.000000e+00  0.000000e+00 0.000000e+00 0.000000e+00  0.000000e+00 0.000000e+00 0.000000e+00  0.000000e+00 0.000000e+00 0.000000e+00  0.000000e+00 0.000000e+00 0.000000e+00  0.000000e+00 0.000000e+00 0.000000e+00  0.000000e+00 0.000000e+00 0.000000e+00  0.000000e+00 0.000000e+00 0.000000e+00  0.000000e+00 0.000000e+00 0.000000e+00  0.000000e+00 0.000000e+00 0.000000e+00  0.000000e+00 0.000000e+00 0.000000e+00  0.000000e+00 0.000000e+00 0.000000e+00  0.000000e+00 0.000000e+00 0.000000e+00  0.000000e+00 0.000000e+00 0.000000e+00  0.000000e+00 0.000000e+00 0.000000e+00  0.000000e+00 0.000000e+00 0.000000e+00  0.000000e+00 0.000000e+00 0.000000e+00  0.000000e+00 0.000000e+00 0.000000e+00  0.000000e+00 0.000000e+00 0.000000e+00  1.125000e+00 0.000000e+00 0.000000e+00  1.500000e+00 0.000000e+00 0.000000e+00  1.125000e+00 0.000000e+00 0.000000e+00  -5.000023e-01 -8.660241e-01 0.000000e+00  -8.660241e-01 -5.000023e-01 0.000000e+00  -8.660241e-01 5.000023e-01 0.000000e+00  -5.000023e-01 8.660241e-01 0.000000e+00  5.000023e-01 8.660241e-01 0.000000e+00  8.660241e-01 5.000023e-01 0.000000e+00  8.660241e-01 -5.000023e-01 0.000000e+00  5.000023e-01 -8.660241e-01 0.000000e+00  7.816930e-02 2.817040e-01 0.000000e+00  1.541368e+00 1.709789e-03 0.000000e+00  1.704084e+00 -4.142390e-04 0.000000e+00  1.479324e+00 -1.649551e-01 0.000000e+00  1.348894e+00 -2.255808e-01 0.000000e+00  1.139382e+00 -3.541532e-01 0.000000e+00  1.660583e+00 -3.354032e-01 0.000000e+00  1.355287e+00 2.829410e-02 0.000000e+00  1.590959e+00 1.262527e-01 0.000000e+00  1.723879e+00 5.036302e-01 0.000000e+00  1.461779e+00 2.532558e-01 0.000000e+00  4.782432e-01 -6.941399e-02 0.000000e+00  1.615013e+00 -3.137634e-01 0.000000e+00  1.635173e+00 -1.971477e-01 0.000000e+00  1.489647e+00 1.226008e-01 0.000000e+00  1.870606e+00 1.455620e-01 0.000000e+00  1.625821e+00 2.854261e-01 0.000000e+00  1.575278e+00 -1.455613e-01 0.000000e+00  8.132866e-01 -1.187478e-02 0.000000e+00  1.279589e+00 6.689235e-02 0.000000e+00  1.243171e+00 -2.347423e-01 0.000000e+00  8.958551e-01 8.278690e-02 0.000000e+00  -3.038888e-01 2.212953e-02 0.000000e+00  1.544885e+00 -4.406447e-01 0.000000e+00  1.282226e-01 4.024034e-02 0.000000e+00  1.247810e-01 -1.032208e-01 0.000000e+00  1.015090e+00 -9.712607e-02 0.000000e+00  1.023192e+00 -1.934820e-02 0.000000e+00  1.343453e+00 -3.136324e-02 0.000000e+00  7.529882e-01 8.767436e-02 0.000000e+00  1.179917e+00 1.215923e-01 0.000000e+00  1.373466e+00 -7.900195e-02 0.000000e+00  1.006076e+00 -4.891822e-02 0.000000e+00  1.763313e+00 -2.784921e-01 0.000000e+00  9.635433e-01 6.404023e-02 0.000000e+00  1.415794e+00 -2.277209e-03 0.000000e+00  9.893642e-01 -2.843570e-02 0.000000e+00  1.561468e+00 -2.838609e-01 0.000000e+00  1.351374e+00 3.236317e-02 0.000000e+00  1.247638e+00 1.263502e-02 0.000000e+00  1.048876e+00 -9.428810e-02 0.000000e+00  8.304666e-01 -7.800099e-02 0.000000e+00  8.823239e-01 -3.807068e-02 0.000000e+00  9.365459e-01 -1.485801e-03 0.000000e+00  9.610430e-01 8.589197e-02 0.000000e+00  1.202787e+00 1.934918e-01 0.000000e+00  1.055482e+00 3.508777e-03 0.000000e+00  8.695627e-01 -1.516758e-02 0.000000e+00  9.563252e-01 -1.091407e-01 0.000000e+00  1.046194e+00 7.126052e-02 0.000000e+00  2.906386e-01 1.555083e-01 0.000000e+00  8.572255e-01 3.246413e-01 0.000000e+00  1.234913e+00 6.493508e-02 0.000000e+00  1.890186e+00 -1.706822e-01 0.000000e+00  1.333303e+00 5.469933e-02 0.000000e+00  1.251709e+00 -1.192317e-01 0.000000e+00  1.548001e+00 2.306973e-01 0.000000e+00  1.205152e+00 -3.240070e-01 0.000000e+00  1.503303e+00 1.492989e-01 0.000000e+00  -1.388194e-01 -3.505789e-02 0.000000e+00  1.403116e+00 2.036716e-01 0.000000e+00  7.122786e-01 -4.916882e-02 0.000000e+00  1.634199e+00 -4.316440e-01 0.000000e+00  1.212110e+00 -4.102585e-02 0.000000e+00  1.001630e+00 -1.460008e-02 0.000000e+00  7.382099e-01 -5.098090e-02 0.000000e+00  1.379510e+00 9.633256e-02 0.000000e+00  9.108097e-01 -7.066399e-02 0.000000e+00  1.758079e+00 5.830837e-01 0.000000e+00  1.412177e+00 3.135805e-01 0.000000e+00  1.425089e+00 2.623522e-01 0.000000e+00  9.641439e-01 6.374535e-02 0.000000e+00  8.507578e-01 -1.121473e-02 0.000000e+00  1.386240e+00 2.526048e-01 0.000000e+00  2.114964e+00 4.633179e-01 0.000000e+00  2.019209e+00 4.069559e-01 0.000000e+00  2.056711e+00 -1.795904e-01 0.000000e+00  1.815359e+00 -1.023719e+00 0.000000e+00  1.272542e+00 4.446180e-01 0.000000e+00  1.075801e+00 4.965620e-01 0.000000e+00  1.169920e+00 -2.383409e-01 0.000000e+00  9.343352e-01 3.682552e-01 0.000000e+00  7.214584e-01 5.132847e-02 0.000000e+00  8.408266e-01 -2.636947e-02 0.000000e+00  1.392664e+00 -1.558753e-01 0.000000e+00  1.590975e+00 -2.252447e-01 0.000000e+00  1.464044e+00 -2.121346e-01 0.000000e+00  4.750136e-01 -8.511262e-03 0.000000e+00  4.695326e-01 7.426580e-03 0.000000e+00  0.000000e+00 0.000000e+00 0.000000e+00  9.488838e-01 -3.757880e-02 0.000000e+00  7.542106e-01 -9.486299e-02 0.000000e+00  0.000000e+00 0.000000e+00 0.000000e+00  5.510776e-01 7.014390e-02 0.000000e+00  4.893152e-01 2.857287e-02 0.000000e+00  0.000000e+00 0.000000e+00 0.000000e+00  1.026035e+00 5.046416e-02 0.000000e+00  6.562500e-01 0.000000e+00 0.000000e+00  1.864725e+00 2.429266e-01 0.000000e+00  1.307437e+00 6.830701e-02 0.000000e+00  1.490724e+00 6.449781e-02 0.000000e+00  1.155219e+00 1.147022e-01 0.000000e+00  1.273611e+00 4.828566e-02 0.000000e+00  2.942926e-01 8.824094e-02 0.000000e+00  -2.330001e-01 1.545086e-01 0.000000e+00  9.099771e-01 6.667975e-02 0.000000e+00  1.845587e+00 3.698333e-01 0.000000e+00  1.057542e+00 7.465460e-02 0.000000e+00  1.511456e+00 -4.213211e-02 0.000000e+00  1.550233e+00 1.187069e-01 0.000000e+00  1.575713e+00 -2.168619e-02 0.000000e+00  9.092037e-01 3.443055e-02 0.000000e+00  5.920342e-01 1.911658e-02 0.000000e+00  1.294999e+00 1.229255e-01 0.000000e+00  1.168213e+00 3.484712e-02 0.000000e+00  1.620403e+00 -4.353564e-01 0.000000e+00  -7.950436e-02 -1.768678e-01 0.000000e+00  1.050393e+00 -5.431664e-01 0.000000e+00  1.448215e+00 -2.111563e-01 0.000000e+00  1.147762e+00 -1.358865e-01 0.000000e+00  1.376597e+00 -2.082374e-01 0.000000e+00  1.592776e+00 1.153701e-01 0.000000e+00  1.644573e+00 3.245414e-02 0.000000e+00  1.503501e+00 -5.341840e-02 0.000000e+00  1.280856e+00 9.121480e-02 0.000000e+00  1.492190e+00 -1.463808e-01 0.000000e+00  1.790232e+00 2.719616e-01 0.000000e+00  1.767196e+00 4.364525e-01 0.000000e+00  1.617425e+00 3.276044e-01 0.000000e+00  2.007935e+00 2.060412e-02 0.000000e+00  1.695808e+00 -6.970949e-02 0.000000e+00  8.303117e-01 7.504354e-01 0.000000e+00  6.198586e-01 5.090238e-01 0.000000e+00  -7.071068e-01 -7.071068e-01 0.000000e+00  4.484135e-02 9.708345e-02 0.000000e+00  1.080773e-02 1.862259e-02 0.000000e+00  2.588197e-01 9.659256e-01 0.000000e+00  -1.142065e-01 6.574184e-02 0.000000e+00  1.524624e+00 -4.707421e-02 0.000000e+00  1.644054e+00 3.115903e-02 0.000000e+00  1.632048e+00 -1.340744e-01 0.000000e+00  9.627873e-01 -1.523537e-02 0.000000e+00  1.124663e+00 5.195707e-02 0.000000e+00  1.548843e+00 -1.367400e-01 0.000000e+00  8.832091e-01 -3.057621e-02 0.000000e+00  1.098140e+00 -1.348082e-01 0.000000e+00  3.701539e-01 -6.136462e-03 0.000000e+00  3.558657e-01 -7.981677e-03 0.000000e+00  0.000000e+00 0.000000e+00 0.000000e+00  1.059270e+00 -2.722010e-02 0.000000e+00  1.260751e+00 1.479245e-02 0.000000e+00  1.259470e+00 -3.056884e-01 0.000000e+00  9.839312e-01 -5.086341e-02 0.000000e+00  8.789039e-01 -8.480407e-02 0.000000e+00  3.661500e-01 -2.798586e-02 0.000000e+00  4.781802e-01 -2.091533e-02 0.000000e+00  4.473375e-01 -3.003370e-02 0.000000e+00  0.000000e+00 0.000000e+00 0.000000e+00  1.256207e+00 -1.814938e-01 0.000000e+00  1.531406e+00 -3.662517e-01 0.000000e+00  9.668698e-01 -6.760246e-02 0.000000e+00  1.439324e+00 -1.105432e-01 0.000000e+00  5.599609e-01 -4.765259e-04 0.000000e+00  3.174193e-01 -2.882696e-02 0.000000e+00  0.000000e+00 0.000000e+00 0.000000e+00  8.283956e-01 -7.676617e-02 0.000000e+00  1.152012e+00 -2.273852e-01 0.000000e+00  8.967573e-01 -1.111533e-01 0.000000e+00  1.020073e+00 3.345527e-02 0.000000e+00  3.121970e-01 -1.780647e-02 0.000000e+00  5.518787e-01 1.522827e-02 0.000000e+00  0.000000e+00 0.000000e+00 0.000000e+00  1.454019e+00 4.859842e-02 0.000000e+00  1.671841e+00 -1.267113e-01 0.000000e+00  1.030447e+00 6.683099e-02 0.000000e+00  1.378097e+00 1.631700e-01 0.000000e+00  5.331593e-01 2.098576e-02 0.000000e+00  1.425321e+00 2.167499e-01 0.000000e+00  1.543531e+00 2.499687e-01 0.000000e+00  6.770589e-01 -1.432568e-02 0.000000e+00  6.900894e-01 1.513212e-02 0.000000e+00  0.000000e+00 0.000000e+00 0.000000e+00  1.503666e+00 -2.927250e-01 0.000000e+00  1.606023e+00 -3.639572e-01 0.000000e+00  5.938807e-01 -3.341770e-02 0.000000e+00  5.457194e-01 -2.574110e-02 0.000000e+00  0.000000e+00 0.000000e+00 0.000000e+00  1.027714e+00 -9.028076e-02 0.000000e+00  1.549276e+00 -2.476113e-01 0.000000e+00  7.704360e-01 4.671835e-03 0.000000e+00  7.543400e-01 -2.159274e-02 0.000000e+00  0.000000e+00 0.000000e+00 0.000000e+00  1.229300e+00 -9.378759e-02 0.000000e+00  1.649379e+00 -1.188545e-01 0.000000e+00  1.608925e+00 1.806612e-01 0.000000e+00  1.515894e+00 6.078561e-03 0.000000e+00  1.149527e+00 1.466637e-01 0.000000e+00  1.306546e+00 1.159751e-01 0.000000e+00  0.000000e+00 0.000000e+00 0.000000e+00  1.224530e+00 -5.404145e-02 0.000000e+00  1.327746e+00 4.285076e-01 0.000000e+00  7.438155e-01 2.793851e-02 0.000000e+00  7.925743e-01 3.383721e-02 0.000000e+00  0.000000e+00 0.000000e+00 0.000000e+00  1.302749e+00 7.807579e-02 0.000000e+00  1.512792e+00 2.993823e-01 0.000000e+00  1.409708e+00 2.552790e-01 0.000000e+00  1.513876e+00 2.730781e-01 0.000000e+00  1.303790e+00 -2.318565e-02 0.000000e+00  1.212756e+00 -6.691274e-02 0.000000e+00  0.000000e+00 0.000000e+00 0.000000e+00  9.865938e-01 7.307229e-02 0.000000e+00  1.487556e+00 5.912960e-01 0.000000e+00  1.608046e+00 4.327857e-01 0.000000e+00  1.505416e+00 3.233402e-01 0.000000e+00  6.766461e-01 -2.082596e-02 0.000000e+00  6.698980e-01 4.423095e-03 0.000000e+00  0.000000e+00 0.000000e+00 0.000000e+00  1.038555e+00 5.876414e-02 0.000000e+00  1.352300e+00 3.602356e-02 0.000000e+00  1.422608e+00 -2.241080e-01 0.000000e+00  1.079796e+00 -5.245571e-02 0.000000e+00  9.468409e-01 -1.725637e-02 0.000000e+00  0.000000e+00 0.000000e+00 0.000000e+00  1.732208e+00 -2.110733e-01 0.000000e+00  1.694328e+00 1.365918e-02 0.000000e+00  1.656831e+00 -2.807268e-01 0.000000e+00  7.869812e-01 -1.036224e-02 0.000000e+00  7.761731e-01 -3.010764e-02 0.000000e+00  0.000000e+00 0.000000e+00 0.000000e+00  1.350081e+00 -1.399181e-01 0.000000e+00  3.146713e-01 1.777695e-02 0.000000e+00  0.000000e+00 0.000000e+00 0.000000e+00  1.343666e+00 1.817504e-01 0.000000e+00  9.911564e-01 1.160243e-01 0.000000e+00  3.919580e-01 3.856436e-02 0.000000e+00  5.064637e-01 1.198657e-02 0.000000e+00  0.000000e+00 0.000000e+00 0.000000e+00  1.269341e+00 1.854767e-01 0.000000e+00  8.917062e-01 4.376992e-02 0.000000e+00  1.181555e+00 8.106458e-02 0.000000e+00  5.174262e-01 -8.994671e-03 0.000000e+00  5.468101e-01 -2.743705e-02 0.000000e+00  0.000000e+00 0.000000e+00 0.000000e+00  1.241450e+00 -1.515517e-01 0.000000e+00  9.526859e-01 -1.016847e-01 0.000000e+00  1.356306e+00 -2.673060e-01 0.000000e+00  5.919025e-01 -2.952774e-02 0.000000e+00  6.271315e-01 -1.586399e-02 0.000000e+00  0.000000e+00 0.000000e+00 0.000000e+00  1.392095e+00 -1.710551e-01 0.000000e+00  1.169018e+00 -5.674872e-02 0.000000e+00  7.054944e-01 3.695996e-03 0.000000e+00  8.520840e-01 9.481209e-03 0.000000e+00  8.519268e-01 2.162429e-02 0.000000e+00  0.000000e+00 0.000000e+00 0.000000e+00  1.652839e+00 -3.469426e-01 0.000000e+00  1.718237e+00 -2.056624e-01 0.000000e+00  1.645613e+00 -3.938793e-01 0.000000e+00  1.234268e+00 -1.890405e-01 0.000000e+00  6.230447e-01 1.860685e-02 0.000000e+00  0.000000e+00 0.000000e+00 0.000000e+00  1.153780e+00 6.935652e-02 0.000000e+00  1.485341e+00 1.733883e-01 0.000000e+00  1.500706e+00 -5.021610e-02 0.000000e+00  1.443890e+00 -1.286353e-01 0.000000e+00  0.000000e+00 0.000000e+00 0.000000e+00  1.209704e+00 -1.578945e-01 0.000000e+00  1.071794e+00 3.927486e-02 0.000000e+00  0.000000e+00 0.000000e+00 0.000000e+00  1.063842e+00 -8.613902e-02 0.000000e+00  1.113468e+00 -6.228661e-01 0.000000e+00  8.197159e-01 -1.394256e-01 0.000000e+00  1.164042e+00 -1.670304e-01 0.000000e+00  0.000000e+00 0.000000e+00 0.000000e+00  1.828971e+00 -4.622163e-01 0.000000e+00  1.525577e+00 -1.448798e-01 0.000000e+00  1.034890e-01 3.668652e-01 0.000000e+00  8.751544e-01 -1.418781e-01 0.000000e+00  1.281430e+00 -5.581077e-02 0.000000e+00  1.185415e+00 1.537956e-01 0.000000e+00  1.107949e+00 1.235052e-01 0.000000e+00  0.000000e+00 0.000000e+00 0.000000e+00  1.001515e+00 1.041572e-01 0.000000e+00  1.154893e+00 2.918908e-02 0.000000e+00  0.000000e+00 0.000000e+00 0.000000e+00  -1.500601e-01 4.479502e-02 0.000000e+00  -1.529118e-01 1.824782e-01 0.000000e+00  -1.721019e-01 1.031009e-01 0.000000e+00  -2.483855e-01 -3.119459e-02 0.000000e+00  1.090668e+00 -4.863829e-02 0.000000e+00  1.250685e+00 -8.304356e-03 0.000000e+00  8.044328e-01 -1.469888e-02 0.000000e+00  1.469320e+00 -4.056343e-01 0.000000e+00  1.519803e+00 -3.113822e-01 0.000000e+00  1.383168e+00 -2.524339e-01 0.000000e+00  1.695912e+00 -4.021560e-01 0.000000e+00  7.113285e-01 1.352459e-03 0.000000e+00  6.966075e-01 -1.263197e-02 0.000000e+00  0.000000e+00 0.000000e+00 0.000000e+00  6.776346e-01 -1.550700e-02 0.000000e+00  6.274931e-01 -1.245528e-02 0.000000e+00  0.000000e+00 0.000000e+00 0.000000e+00  9.397801e-01 -2.207593e-02 0.000000e+00  4.046415e-01 -1.563853e-02 0.000000e+00  4.402526e-01 -2.264964e-02 0.000000e+00  0.000000e+00 0.000000e+00 0.000000e+00  9.050159e-01 -7.644316e-02 0.000000e+00  6.482423e-01 -2.466123e-02 0.000000e+00  7.655293e-01 -3.571243e-02 0.000000e+00  1.738645e+00 7.778414e-02 0.000000e+00  1.329599e+00 1.636158e-01 0.000000e+00  1.602912e+00 3.187924e-03 0.000000e+00  5.321660e-01 -2.564551e-02 0.000000e+00  4.829418e-01 -1.873408e-02 0.000000e+00  0.000000e+00 0.000000e+00 0.000000e+00  1.271628e+00 -1.449135e-01 0.000000e+00  9.858859e-01 -8.667717e-02 0.000000e+00  1.582537e+00 -2.607060e-01 0.000000e+00  1.134301e+00 -8.418990e-02 0.000000e+00  1.083898e+00 -5.936016e-02 0.000000e+00  1.460538e+00 -1.323785e-01 0.000000e+00  9.984077e-01 -8.543053e-02 0.000000e+00  1.026457e+00 -5.135916e-02 0.000000e+00  -2.053170e-02 -1.263888e-01 0.000000e+00  -6.990162e-02 1.289214e-01 0.000000e+00  -2.588197e-01 9.659256e-01 0.000000e+00  -1.431276e-01 -9.599273e-02 0.000000e+00  1.530458e+00 -1.488748e-01 0.000000e+00  1.368292e+00 -1.669082e-02 0.000000e+00  3.389602e-01 -1.779926e-02 0.000000e+00  3.066629e-01 -1.318603e-02 0.000000e+00  0.000000e+00 0.000000e+00 0.000000e+00  1.003605e+00 5.660579e-02 0.000000e+00  1.057292e+00 2.938932e-02 0.000000e+00  1.264178e+00 2.073562e-01 0.000000e+00  4.657891e-01 5.081167e-02 0.000000e+00  0.000000e+00 0.000000e+00 0.000000e+00  6.091307e-01 3.996349e-02 0.000000e+00  1.672214e+00 -2.047300e-02 0.000000e+00  1.326889e+00 2.364165e-02 0.000000e+00  1.637580e+00 1.661936e-01 0.000000e+00  9.893684e-01 2.003815e-01 0.000000e+00  1.782638e+00 4.125499e-01 0.000000e+00  1.532098e+00 3.213878e-01 0.000000e+00  1.031313e+00 1.374694e-01 0.000000e+00  1.624060e+00 3.432816e-01 0.000000e+00  1.532409e+00 2.476356e-01 0.000000e+00  1.627185e+00 2.355606e-01 0.000000e+00  1.578528e+00 4.528851e-01 0.000000e+00  3.457463e-01 1.294955e-01 0.000000e+00  -1.039624e-01 1.139705e-01 0.000000e+00  -7.071068e-01 7.071068e-01 0.000000e+00  1.362133e+00 9.169795e-02 0.000000e+00  1.441341e+00 1.327941e-01 0.000000e+00  5.543736e-01 1.366737e-02 0.000000e+00  5.959129e-01 2.197617e-02 0.000000e+00  0.000000e+00 0.000000e+00 0.000000e+00  1.155398e+00 6.141475e-02 0.000000e+00  8.360631e-01 2.079376e-02 0.000000e+00  9.543923e-01 7.004663e-02 0.000000e+00  1.240690e+00 1.934594e-01 0.000000e+00  1.018908e+00 1.225351e-01 0.000000e+00  1.448798e+00 1.304905e-01 0.000000e+00  4.037222e-01 1.356986e-02 0.000000e+00  4.075584e-01 -8.979459e-03 0.000000e+00  0.000000e+00 0.000000e+00 0.000000e+00  7.869701e-01 -5.285060e-02 0.000000e+00  1.084965e+00 -3.574768e-02 0.000000e+00  1.153381e+00 5.454881e-02 0.000000e+00  9.389067e-01 5.437161e-02 0.000000e+00  1.492135e+00 2.353118e-01 0.000000e+00  9.377309e-01 1.298108e-01 0.000000e+00  7.101018e-01 1.093149e-01 0.000000e+00  0.000000e+00 0.000000e+00 0.000000e+00  1.376493e+00 2.985820e-01 0.000000e+00  8.518420e-01 1.070905e-01 0.000000e+00  1.701912e+00 3.531726e-01 0.000000e+00  1.824277e+00 3.015854e-01 0.000000e+00  2.050558e+00 4.153505e-01 0.000000e+00  1.910061e+00 2.989988e-01 0.000000e+00  2.312618e+00 1.481818e-01 0.000000e+00  2.644300e+00 -6.507638e-02 0.000000e+00  1.617516e+00 6.014719e-01 0.000000e+00  4.003531e-01 -1.980003e-02 0.000000e+00  0.000000e+00 0.000000e+00 0.000000e+00  4.810484e-01 3.345525e-04 0.000000e+00  1.841767e+00 2.559280e-02 0.000000e+00  4.935448e-01 2.592449e-02 0.000000e+00  0.000000e+00 0.000000e+00 0.000000e+00  1.207927e+00 5.730121e-03 0.000000e+00  1.664924e+00 -3.279745e-01 0.000000e+00  1.463543e+00 -1.367425e-02 0.000000e+00  1.406250e+00 0.000000e+00 0.000000e+00  6.587001e-01 1.952331e-01 0.000000e+00  6.660933e-01 2.211031e-01 0.000000e+00  7.071068e-01 7.071068e-01 0.000000e+00  1.223335e+00 3.175211e-01 0.000000e+00  9.591654e-01 -6.852175e-01 0.000000e+00  8.677934e-01 -4.729466e-01 0.000000e+00  2.588197e-01 -9.659256e-01 0.000000e+00  1.301712e+00 -8.765302e-01 0.000000e+00  1.558208e+00 -1.449568e+00 0.000000e+00  1.471119e+00 -1.479621e-01 0.000000e+00  1.158673e+00 5.136620e-01 0.000000e+00  1.204213e+00 2.516939e-01 0.000000e+00  5.161949e-01 1.377654e-01 0.000000e+00  -1.420523e-01 1.957909e-01 0.000000e+00  1.756878e+00 4.817935e-01 0.000000e+00  7.869426e-01 -1.473632e-01 0.000000e+00  6.716161e-01 -7.199295e-02 0.000000e+00  0.000000e+00 0.000000e+00 0.000000e+00  1.112553e+00 -1.098902e-01 0.000000e+00  6.562500e-01 0.000000e+00 0.000000e+00  -3.625724e-02 4.163086e-01 0.000000e+00  6.815720e-01 1.580948e-01 0.000000e+00  1.440572e+00 3.291504e-01 0.000000e+00  1.049439e+00 2.011807e-01 0.000000e+00  -2.993726e-01 4.210936e-01 0.000000e+00  1.186616e+00 -2.644920e-01 0.000000e+00  1.397000e+00 -1.344733e-01 0.000000e+00  1.406250e+00 0.000000e+00 0.000000e+00  1.423650e+00 -5.528027e-01 0.000000e+00  1.591055e+00 -4.288177e-01 0.000000e+00  1.342234e+00 -3.986916e-01 0.000000e+00  2.070156e+00 -1.334421e+00 0.000000e+00  7.071068e-01 -7.071068e-01 0.000000e+00  1.788847e+00 4.825236e-01 0.000000e+00  -1.594260e-02 5.824048e-01 0.000000e