<?xml version="1.0"?>
<VTKFile type="UnstructuredGrid"  version="0.1"  >
<UnstructuredGrid>
<Piece  NumberOfPoints="525" NumberOfCells="924">
<Points>
<DataArray  type="Float32"  NumberOfComponents="3"  format="ascii">0 0 0  2.2 0 0  2.2 0.41 0  0 0.41 0  0.15 0.2 0  0.25 0.2 0  0.2 0.15 0  0.2 0.25 0  0.104762 0 0  0.209524 0 0  0.314286 0 0  0.419048 0 0  0.52381 0 0  0.628571 0 0  0.733333 0 0  0.838095 0 0  0.942857 0 0  1.04762 0 0  1.15238 0 0  1.25714 0 0  1.3619 0 0  1.46667 0 0  1.57143 0 0  1.67619 0 0  1.78095 0 0  1.88571 0 0  1.99048 0 0  2.09524 0 0  2.2 0.1025 0  2.2 0.205 0  2.2 0.3075 0  2.1 0.41 0  2 0.41 0  1.9 0.41 0  1.8 0.41 0  1.7 0.41 0  1.6 0.41 0  1.5 0.41 0  1.4 0.41 0  1.3 0.41 0  1.2 0.41 0  1.1 0.41 0  1 0.41 0  0.9 0.41 0  0.8 0.41 0  0.7 0.41 0  0.6 0.41 0  0.5 0.41 0  0.4 0.41 0  0.3 0.41 0  0.2 0.41 0  0.1 0.41 0  0 0.3075 0  0 0.205 0  0 0.1025 0  0.156699 0.225 0  0.175 0.243301 0  0.225 0.243301 0  0.243301 0.225 0  0.243301 0.175 0  0.225 0.156699 0  0.175 0.156699 0  0.156699 0.175 0  0.352033 0.262216 0  1.04579 0.252253 0  1.24065 0.243419 0  0.985775 0.171509 0  1.30324 0.187395 0  0.890988 0.190768 0  1.39085 0.202767 0  0.801464 0.204685 0  1.49904 0.204666 0  0.704267 0.202289 0  1.60238 0.204951 0  0.487789 0.19191 0  1.72935 0.219637 0  1.83335 0.187427 0  2.03359 0.193642 0  0.314663 0.307348 0  0.249039 0.333583 0  2.12147 0.253405 0  2.06373 0.0836837 0  0.0734726 0.267055 0  0.143989 0.0677174 0  0.0613613 0.33781 0  0.299628 0.236829 0  0.527114 0.295386 0  0.262384 0.26549 0  0.275777 0.18341 0  1.74578 0.330928 0  1.84001 0.302448 0  1.64998 0.313838 0  0.648421 0.302367 0  1.54544 0.308508 0  0.755686 0.306156 0  1.42668 0.314809 0  0.870524 0.298596 0  1.22553 0.112785 0  1.05603 0.147372 0  0.969346 0.329867 0  1.32527 0.276284 0  2.02914 0.29511 0  1.88168 0.119486 0  1.79545 0.104842 0  1.35688 0.0892539 0  1.69041 0.105324 0  0.914199 0.0955566 0  1.58234 0.102923 0  0.61843 0.10815 0  1.47999 0.101161 0  0.725217 0.104273 0  0.821727 0.102306 0  1.96725 0.105778 0  0.418624 0.241547 0  0.135226 0.239087 0  1.14921 0.314841 0  0.404508 0.333259 0  0.590155 0.206269 0  2.12554 0.150731 0  1.93166 0.22436 0  0.104689 0.190046 0  0.267856 0.0744753 0  0.269368 0.221581 0  0.434446 0.114927 0  1.0089 0.0793381 0  0.953023 0.246698 0  1.25853 0.33355 0  1.05268 0.340828 0  2.1369 0.067383 0  0.522398 0.112537 0  1.3421 0.348929 0  0.215186 0.289473 0  0.203197 0.335348 0  1.13984 0.190728 0  1.93813 0.330504 0  1.10505 0.0883705 0  0.341988 0.0824728 0  0.253113 0.138035 0  0.291932 0.131907 0  0.203713 0.102439 0  0.150375 0.134668 0  0.151494 0.309119 0  0.354384 0.17896 0  0.0685367 0.100776 0  0.424128 0.180088 0  0.474925 0.0568661 0  2.10843 0.347669 0  2.16073 0.280452 0  2.16073 0.229202 0  2.2 0.25625 0  2.07949 0.0418418 0  2.02711 0.0418418 0  2.04286 0 0  0.176756 0.0338587 0  0.124375 0.0338587 0  0.157143 0 0  0.0806807 0.373905 0  0.0306807 0.373905 0  0.05 0.41 0  0.0306807 0.322655 0  0 0.35875 0  0.281851 0.320466 0  0.27452 0.371791 0  0.307331 0.358674 0  0.067417 0.302432 0  0.0367363 0.287277 0  0.307146 0.272089 0  0.325831 0.249523 0  0.333348 0.284782 0  0.255711 0.299536 0  0.288524 0.286419 0  2.07531 0.274257 0  2.03137 0.244376 0  2.07753 0.223523 0  2.01549 0.0947309 0  1.97886 0.052889 0  2.00042 0.14971 0  2.04866 0.138663 0  0.472869 0.268466 0  0.453206 0.216728 0  0.507451 0.243648 0  2.16277 0.177866 0  2.16277 0.126615 0  2.2 0.15375 0  1.90667 0.171923 0  1.88251 0.205894 0  1.85752 0.153456 0  1.88583 0.263404 0  1.83668 0.244938 0  0.604293 0.15721 0  0.647211 0.204279 0  0.661349 0.15522 0  0.359586 0.320304 0  0.37827 0.297737 0  0.155113 0.241194 0  0.145962 0.232044 0  0.164645 0.235355 0  0.259539 0.179205 0  0.262888 0.191705 0  0.248296 0.187059 0  0.281006 0.251159 0  1.0209 0.15944 0  1.05091 0.199813 0  1.01578 0.211881 0  1.26438 0.15009 0  1.23309 0.178102 0  1.27195 0.215407 0  1.29121 0.101019 0  1.33006 0.138324 0  0.928528 0.0477783 0  0.876147 0.0477783 0  0.890476 0 0  0.902594 0.143162 0  0.949987 0.133533 0  0.938381 0.181138 0  0.867963 0.0989313 0  0.856357 0.146537 0  0.829911 0.051153 0  1.41178 0.0446269 0  1.35939 0.0446269 0  1.41429 0 0  1.37386 0.14601 0  1.34705 0.195081 0  1.41844 0.0952074 0  1.43542 0.151964 0  1.47333 0.0505805 0  0.77753 0.051153 0  0.785714 0 0  0.811595 0.153496 0  0.846226 0.197726 0  0.773472 0.10329 0  0.76334 0.154479 0  0.729275 0.0521365 0  1.52571 0.0505805 0  1.51905 0 0  1.48951 0.152913 0  1.44494 0.203716 0  1.53117 0.102042 0  1.54069 0.153795 0  1.57689 0.0514615 0  1.9804 0.259735 0  1.98262 0.209001 0  1.82001 0.356224 0  1.87 0.356224 0  1.85 0.41 0  1.78468 0.261043 0  1.78135 0.203532 0  1.72289 0.370464 0  1.77289 0.370464 0  1.75 0.41 0  1.7929 0.316688 0  1.73757 0.275282 0  1.62499 0.361919 0  1.67499 0.361919 0  1.65 0.41 0  1.69788 0.322383 0  1.68966 0.266738 0  1.62618 0.259394 0  1.66586 0.212294 0  0.624211 0.356183 0  0.674211 0.356183 0  0.65 0.41 0  0.619288 0.254318 0  0.676344 0.252328 0  1.52272 0.359254 0  1.57272 0.359254 0  1.55 0.41 0  1.59771 0.311173 0  1.57391 0.256729 0  1.52224 0.256587 0  1.55071 0.204809 0  0.727843 0.358078 0  0.777843 0.358078 0  0.75 0.41 0  0.702053 0.304261 0  0.729977 0.254223 0  0.778575 0.25542 0  0.752865 0.203487 0  1.41334 0.362405 0  1.46334 0.362405 0  1.45 0.41 0  1.48606 0.311659 0  1.46286 0.259738 0  1.40876 0.258788 0  0.835262 0.354298 0  0.885262 0.354298 0  0.85 0.41 0  0.813105 0.302376 0  0.835994 0.25164 0  0.880756 0.244682 0  0.934673 0.369934 0  0.984673 0.369934 0  0.95 0.41 0  0.919935 0.314231 0  0.676894 0.0521365 0  0.680952 0 0  0.714742 0.153281 0  0.671824 0.106212 0  0.623501 0.054075 0  1.62927 0.0514615 0  1.62381 0 0  1.59236 0.153937 0  1.63638 0.104124 0  1.6464 0.155137 0  1.6833 0.052662 0  1.73568 0.052662 0  1.72857 0 0  1.70988 0.16248 0  1.74293 0.105083 0  1.7624 0.16224 0  1.7882 0.052421 0  1.84058 0.052421 0  1.83333 0 0  1.8144 0.146135 0  1.83857 0.112164 0  1.88369 0.059743 0  1.12461 0.36242 0  1.17461 0.36242 0  1.15 0.41 0  1.31425 0.231839 0  1.28296 0.259852 0  1.35806 0.239526 0  1.37597 0.295546 0  1.92648 0.052889 0  1.9381 0 0  1.92447 0.112632 0  1.94945 0.165069 0  0.352254 0.37163 0  0.402254 0.37163 0  0.35 0.41 0  0.513557 0.352693 0  0.563557 0.352693 0  0.55 0.41 0  0.587767 0.298876 0  0.558634 0.250827 0  0.538972 0.19909 0  0.452254 0.37163 0  0.45 0.41 0  0.465811 0.314323 0  0.411566 0.287403 0  0.385328 0.251881 0  0.119958 0.214566 0  0.0890808 0.22855 0  0.104349 0.253071 0  0.22452 0.371791 0  0.25 0.41 0  0.291071 0.0372376 0  0.23869 0.0372376 0  0.261905 0 0  0.265876 0.243536 0  0.256335 0.223291 0  0.252842 0.245245 0  0.284498 0.229205 0  1.03246 0.113355 0  0.997337 0.125424 0  0.961549 0.0874474 0  0.922006 0.218733 0  0.969399 0.209103 0  0.961184 0.288282 0  0.911774 0.272647 0  1.22926 0.371775 0  1.27927 0.371775 0  1.25 0.41 0  1.02634 0.375414 0  1.07634 0.375414 0  1.05 0.41 0  1.01101 0.335348 0  2.11607 0.0336915 0  2.16845 0.0336915 0  2.14762 0 0  2.16845 0.0849415 0  2.2 0.05125 0  2.10032 0.0755333 0  0.556277 0.159403 0  0.570414 0.110343 0  0.505093 0.152224 0  1.32105 0.379464 0  1.37105 0.379464 0  1.35 0.41 0  1.33369 0.312607 0  1.38439 0.331869 0  0.999406 0.249476 0  1.00757 0.29106 0  1.30031 0.34124 0  1.2919 0.304917 0  2.13122 0.109057 0  2.09464 0.117207 0  0.272572 0.202495 0  0.259684 0.21079 0  0.248296 0.212941 0  0.287702 0.21012 0  2.1235 0.202068 0  2.07956 0.172187 0  1.02826 0.039669 0  0.975878 0.039669 0  0.995238 0 0  1.04923 0.29654 0  1.10095 0.327835 0  1.0975 0.283547 0  0.57112 0.054075 0  0.576191 0 0  0.523104 0.0562685 0  1.24959 0.288485 0  1.20387 0.324195 0  1.19493 0.27913 0  0.238785 0.277481 0  0.232112 0.311528 0  0.226118 0.334465 0  0.201599 0.372674 0  1.14453 0.252784 0  1.19024 0.217074 0  1.09281 0.221491 0  0.209191 0.31241 0  0.220093 0.266387 0  0.243692 0.254395 0  0.235355 0.235355 0  0.478422 0.113732 0  0.461117 0.153419 0  1.91906 0.370252 0  1.96907 0.370252 0  1.95 0.41 0  1.98364 0.312807 0  2.01457 0.352555 0  1.88907 0.316476 0  1.9349 0.277432 0  1.18268 0.151757 0  1.09794 0.16905 0  1.12872 0.0441853 0  1.07634 0.0441853 0  1.1 0 0  1.05697 0.0838543 0  1.08054 0.117871 0  1.12244 0.139549 0  1.16529 0.100578 0  0.304922 0.078474 0  0.328137 0.0412364 0  0.380518 0.0412364 0  0.366667 0 0  0.388217 0.0986999 0  0.426747 0.0574635 0  0.31696 0.10719 0  0.279894 0.103191 0  0.272523 0.134971 0  0.260485 0.106255 0  0.228413 0.120237 0  0.214357 0.129569 0  0.239057 0.147367 0  1.30701 0.0446269 0  1.30952 0 0  1.24133 0.0563925 0  0.235785 0.0884571 0  1.18895 0.0563925 0  1.20476 0 0  0.206618 0.0512195 0  0.173851 0.0850782 0  0.0367363 0.236028 0  0 0.25625 0  0.264445 0.160722 0  0.248207 0.156517 0  0.235355 0.164645 0  0.283855 0.157658 0  0.130694 0.182523 0  0.127344 0.195023 0  0.151704 0.187059 0  0.127532 0.162357 0  0.153537 0.154834 0  0.0523445 0.197523 0  0.14336 0.274103 0  0.112483 0.288087 0  0.31508 0.181185 0  0.327006 0.207895 0  0.323158 0.155434 0  0.0866493 0.050388 0  0.0342684 0.050388 0  0.052381 0 0  0.0342684 0.101638 0  0 0.05125 0  0.421376 0.210817 0  0.455958 0.185999 0  0.429287 0.147508 0  0.106428 0.323464 0  0.353208 0.220588 0  0.106263 0.0842467 0  0.0342684 0.152888 0  0 0.15375 0  0.109456 0.117722 0  0.147182 0.101193 0  0.0866129 0.145411 0  0.162687 0.145684 0  0.164645 0.164645 0  0.348186 0.130716 0  0.386504 0.210254 0  0.389256 0.179524 0  0.394415 0.146944 0  0.125747 0.359559 0  0.175747 0.359559 0  0.15 0.41 0  0.177345 0.322233 0  0.142613 0.219544 0  0.151704 0.212941 0  0.499367 0.0284331 0  0.446986 0.0284331 0  0.471429 0 0  0.498661 0.0847016 0  0.454685 0.0858966 0  0.201856 0.126219 0  0.212941 0.151704 0  0.18334 0.299296 0  0.175187 0.142334 0  0.187059 0.151704 0  0.177044 0.118554 0  2.15421 0.327585 0  2.15421 0.378834 0  2.2 0.35875 0  2.10421 0.378834 0  2.15 0.41 0  2.05422 0.378
[...]
<PointData  Vectors="u"> 
<DataArray  type="Float32"  Name="u"  NumberOfComponents="3" format="ascii">0.000000e+00 0.000000e+00 0.000000e+00  0.000000e+00 0.000000e+00 0.000000e+00  0.000000e+00 0.000000e+00 0.000000e+00  0.000000e+00 0.000000e+00 0.000000e+00  0.000000e+00 -1.000000e+00 0.000000e+00  0.000000e+00 1.000000e+00 0.000000e+00  1.000000e+00 0.000000e+00 0.000000e+00  -1.000000e+00 0.000000e+00 0.000000e+00  0.000000e+00 0.000000e+00 0.000000e+00  0.000000e+00 0.000000e+00 0.000000e+00  0.000000e+00 0.000000e+00 0.000000e+00  0.000000e+00 0.000000e+00 0.000000e+00  0.000000e+00 0.000000e+00 0.000000e+00  0.000000e+00 0.000000e+00 0.000000e+00  0.000000e+00 0.000000e+00 0.000000e+00  0.000000e+00 0.000000e+00 0.000000e+00  0.000000e+00 0.000000e+00 0.000000e+00  0.000000e+00 0.000000e+00 0.000000e+00  0.000000e+00 0.000000e+00 0.000000e+00  0.000000e+00 0.000000e+00 0.000000e+00  0.000000e+00 0.000000e+00 0.000000e+00  0.000000e+00 0.000000e+00 0.000000e+00  0.000000e+00 0.000000e+00 0.000000e+00  0.000000e+00 0.000000e+00 0.000000e+00  0.000000e+00 0.000000e+00 0.000000e+00  0.000000e+00 0.000000e+00 0.000000e+00  0.000000e+00 0.000000e+00 0.000000e+00  0.000000e+00 0.000000e+00 0.000000e+00  1.114583e+00 2.321406e-02 0.000000e+00  1.611383e+00 7.493746e-02 0.000000e+00  1.003419e+00 8.041316e-02 0.000000e+00  0.000000e+00 0.000000e+00 0.000000e+00  0.000000e+00 0.000000e+00 0.000000e+00  0.000000e+00 0.000000e+00 0.000000e+00  0.000000e+00 0.000000e+00 0.000000e+00  0.000000e+00 0.000000e+00 0.000000e+00  0.000000e+00 0.000000e+00 0.000000e+00  0.000000e+00 0.000000e+00 0.000000e+00  0.000000e+00 0.000000e+00 0.000000e+00  0.000000e+00 0.000000e+00 0.000000e+00  0.000000e+00 0.000000e+00 0.000000e+00  0.000000e+00 0.000000e+00 0.000000e+00  0.000000e+00 0.000000e+00 0.000000e+00  0.000000e+00 0.000000e+00 0.000000e+00  0.000000e+00 0.000000e+00 0.000000e+00  0.000000e+00 0.000000e+00 0.000000e+00  0.000000e+00 0.000000e+00 0.000000e+00  0.000000e+00 0.000000e+00 0.000000e+00  0.000000e+00 0.000000e+00 0.000000e+00  0.000000e+00 0.000000e+00 0.000000e+00  0.000000e+00 0.000000e+00 0.000000e+00  0.000000e+00 0.000000e+00 0.000000e+00  1.125000e+00 0.000000e+00 0.000000e+00  1.500000e+00 0.000000e+00 0.000000e+00  1.125000e+00 0.000000e+00 0.000000e+00  -5.000023e-01 -8.660241e-01 0.000000e+00  -8.660241e-01 -5.000023e-01 0.000000e+00  -8.660241e-01 5.000023e-01 0.000000e+00  -5.000023e-01 8.660241e-01 0.000000e+00  5.000023e-01 8.660241e-01 0.000000e+00  8.660241e-01 5.000023e-01 0.000000e+00  8.660241e-01 -5.000023e-01 0.000000e+00  5.000023e-01 -8.660241e-01 0.000000e+00  6.402639e-01 -5.053106e-02 0.000000e+00  1.643672e+00 3.351056e-01 0.000000e+00  1.645875e+00 -4.000632e-01 0.000000e+00  1.474634e+00 1.543075e-01 0.000000e+00  1.614213e+00 -2.129565e-01 0.000000e+00  1.577665e+00 -1.015524e-01 0.000000e+00  1.577600e+00 1.719299e-01 0.000000e+00  1.237641e+00 -4.517703e-01 0.000000e+00  1.426253e+00 2.013498e-01 0.000000e+00  1.085567e+00 -1.154983e-01 0.000000e+00  1.518706e+00 -2.530425e-01 0.000000e+00  1.323550e+00 3.512026e-01 0.000000e+00  1.617449e+00 -1.813981e-01 0.000000e+00  1.565957e+00 2.048884e-01 0.000000e+00  1.506872e+00 -2.192241e-01 0.000000e+00  2.072888e+00 2.409393e-02 0.000000e+00  1.676708e+00 2.547896e-01 0.000000e+00  1.450115e+00 -1.531479e-01 0.000000e+00  8.741176e-01 -6.049455e-02 0.000000e+00  1.283929e+00 9.174460e-02 0.000000e+00  1.223798e+00 -2.235905e-01 0.000000e+00  9.005027e-01 9.248720e-02 0.000000e+00  -2.529507e-01 2.695600e-01 0.000000e+00  8.694305e-01 8.421019e-02 0.000000e+00  2.074748e-01 1.898250e-01 0.000000e+00  -1.454660e-02 8.619571e-02 0.000000e+00  8.914358e-01 1.349652e-02 0.000000e+00  1.153789e+00 1.335576e-01 0.000000e+00  1.167579e+00 -1.312244e-01 0.000000e+00  1.474781e+00 -1.325130e-01 0.000000e+00  1.419829e+00 -5.275408e-02 0.000000e+00  1.818546e+00 -2.987051e-01 0.000000e+00  1.145976e+00 1.063692e-01 0.000000e+00  1.134285e+00 -5.353265e-02 0.000000e+00  1.022006e+00 -8.118583e-02 0.000000e+00  9.660924e-01 6.015787e-02 0.000000e+00  1.068709e+00 3.318332e-02 0.000000e+00  1.252174e+00 -5.688979e-02 0.000000e+00  1.349905e+00 -1.520498e-01 0.000000e+00  1.094256e+00 1.027244e-01 0.000000e+00  1.098259e+00 4.342951e-02 0.000000e+00  9.325878e-01 -1.647134e-02 0.000000e+00  1.047341e+00 -8.976190e-02 0.000000e+00  8.663903e-01 -1.497599e-02 0.000000e+00  8.785779e-01 -3.864610e-02 0.000000e+00  9.605827e-01 9.201922e-02 0.000000e+00  9.341165e-01 7.205258e-02 0.000000e+00  9.947160e-01 -1.122063e-01 0.000000e+00  1.059528e+00 1.081719e-02 0.000000e+00  9.305030e-01 -1.920852e-02 0.000000e+00  2.948167e-01 -6.467803e-01 0.000000e+00  8.760371e-01 3.748207e-01 0.000000e+00  1.458695e+00 -8.071050e-02 0.000000e+00  1.562289e+00 -2.931015e-01 0.000000e+00  1.712122e+00 6.643865e-01 0.000000e+00  1.430061e+00 -1.238160e-01 0.000000e+00  1.558043e+00 1.270146e-01 0.000000e+00  1.201328e+00 -2.852770e-01 0.000000e+00  1.493055e+00 1.186963e-01 0.000000e+00  -2.262801e-01 2.550175e-01 0.000000e+00  1.619732e+00 2.396713e-01 0.000000e+00  7.418528e-01 -2.723898e-02 0.000000e+00  1.575153e+00 1.742573e-01 0.000000e+00  1.012399e+00 -8.658005e-02 0.000000e+00  1.219322e+00 -9.720143e-03 0.000000e+00  7.916404e-01 -2.220052e-02 0.000000e+00  1.371822e+00 3.346796e-01 0.000000e+00  8.354557e-01 -8.584224e-03 0.000000e+00  1.810961e+00 6.100391e-01 0.000000e+00  1.446052e+00 3.153463e-01 0.000000e+00  1.227555e+00 -7.600022e-02 0.000000e+00  1.102778e+00 -1.654310e-02 0.000000e+00  8.246592e-01 3.714599e-02 0.000000e+00  1.434530e+00 1.891108e-01 0.000000e+00  2.033354e+00 4.286034e-01 0.000000e+00  1.950359e+00 3.442113e-01 0.000000e+00  2.017588e+00 -1.809837e-01 0.000000e+00  1.778660e+00 -9.882709e-01 0.000000e+00  1.298072e+00 4.640535e-01 0.000000e+00  4.990941e-01 2.397069e-01 0.000000e+00  1.163675e+00 -2.234303e-01 0.000000e+00  1.039472e+00 8.524794e-02 0.000000e+00  7.318742e-01 1.203183e-01 0.000000e+00  7.546873e-01 -1.187686e-02 0.000000e+00  1.165459e+00 6.942350e-03 0.000000e+00  1.556304e+00 -5.454731e-02 0.000000e+00  1.336667e+00 1.070267e-01 0.000000e+00  5.109974e-01 -2.147794e-02 0.000000e+00  4.752711e-01 -2.033148e-02 0.000000e+00  0.000000e+00 0.000000e+00 0.000000e+00  9.264366e-01 -3.752045e-02 0.000000e+00  7.388805e-01 -8.952245e-02 0.000000e+00  0.000000e+00 0.000000e+00 0.000000e+00  5.593690e-01 7.620902e-02 0.000000e+00  4.901301e-01 3.142784e-02 0.000000e+00  0.000000e+00 0.000000e+00 0.000000e+00  1.026156e+00 5.492809e-02 0.000000e+00  6.562500e-01 0.000000e+00 0.000000e+00  1.931743e+00 1.792406e-01 0.000000e+00  1.317690e+00 3.732924e-02 0.000000e+00  1.491454e+00 -2.318884e-02 0.000000e+00  1.159405e+00 1.320072e-01 0.000000e+00  1.273738e+00 5.755000e-02 0.000000e+00  6.626381e-01 1.410415e-01 0.000000e+00  5.577820e-02 1.601006e-01 0.000000e+00  1.461893e+00 -8.058877e-02 0.000000e+00  1.963266e+00 3.990730e-01 0.000000e+00  1.345324e+00 1.295222e-01 0.000000e+00  1.401675e+00 -1.978504e-01 0.000000e+00  1.613623e+00 -2.345809e-01 0.000000e+00  1.611628e+00 -2.790468e-01 0.000000e+00  8.913246e-01 -5.727495e-02 0.000000e+00  5.583194e-01 -1.073844e-02 0.000000e+00  1.201712e+00 -9.763938e-02 0.000000e+00  1.200432e+00 -1.474718e-01 0.000000e+00  7.211909e-01 -3.464744e-01 0.000000e+00  3.686852e-01 -5.427872e-01 0.000000e+00  6.795643e-01 -1.681981e-01 0.000000e+00  1.592540e+00 -5.632785e-02 0.000000e+00  1.310402e+00 -2.290522e-02 0.000000e+00  1.494161e+00 4.630657e-02 0.000000e+00  1.385256e+00 1.728840e-01 0.000000e+00  1.523967e+00 2.586979e-01 0.000000e+00  1.377918e+00 1.749611e-01 0.000000e+00  1.443105e+00 2.104842e-01 0.000000e+00  1.452968e+00 2.821544e-01 0.000000e+00  1.405901e+00 3.302828e-01 0.000000e+00  1.380276e+00 3.477537e-01 0.000000e+00  1.118849e+00 4.988147e-02 0.000000e+00  1.935751e+00 -2.230437e-01 0.000000e+00  1.960209e+00 -3.914291e-01 0.000000e+00  8.604284e-01 7.957765e-01 0.000000e+00  6.441979e-01 5.615316e-01 0.000000e+00  -7.071068e-01 -7.071068e-01 0.000000e+00  3.156991e-02 1.683798e-01 0.000000e+00  -5.101366e-02 1.825784e-01 0.000000e+00  2.588197e-01 9.659256e-01 0.000000e+00  -2.052727e-02 2.836360e-01 0.000000e+00  1.208082e+00 1.018435e-01 0.000000e+00  1.430782e+00 2.712073e-01 0.000000e+00  1.587581e+00 3.367741e-01 0.000000e+00  1.298355e+00 -1.833580e-01 0.000000e+00  1.356296e+00 -2.865514e-01 0.000000e+00  1.665564e+00 -3.353794e-01 0.000000e+00  9.776429e-01 -8.533054e-02 0.000000e+00  1.327138e+00 -6.992044e-02 0.000000e+00  3.684111e-01 -1.670153e-02 0.000000e+00  3.553651e-01 -2.670636e-03 0.000000e+00  0.000000e+00 0.000000e+00 0.000000e+00  1.470038e+00 7.517789e-02 0.000000e+00  1.270977e+00 2.014962e-02 0.000000e+00  1.646746e+00 8.656197e-02 0.000000e+00  9.618258e-01 2.439769e-02 0.000000e+00  1.414796e+00 6.817213e-02 0.000000e+00  3.876883e-01 -7.003577e-04 0.000000e+00  4.734246e-01 1.319165e-02 0.000000e+00  4.846347e-01 -7.664667e-04 0.000000e+00  0.000000e+00 0.000000e+00 0.000000e+00  1.385467e+00 3.423605e-02 0.000000e+00  1.645798e+00 -3.226989e-02 0.000000e+00  9.617130e-01 5.164996e-02 0.000000e+00  1.298313e+00 1.599677e-01 0.000000e+00  5.085742e-01 1.411938e-02 0.000000e+00  3.794102e-01 -1.950527e-02 0.000000e+00  0.000000e+00 0.000000e+00 0.000000e+00  1.198649e+00 -3.318840e-02 0.000000e+00  1.394644e+00 -3.207218e-01 0.000000e+00  1.072842e+00 -6.661312e-02 0.000000e+00  9.829288e-01 -1.144238e-01 0.000000e+00  3.640073e-01 -4.062412e-02 0.000000e+00  4.848258e-01 4.696804e-03 0.000000e+00  0.000000e+00 0.000000e+00 0.000000e+00  1.186154e+00 1.502846e-01 0.000000e+00  1.479646e+00 2.923840e-01 0.000000e+00  8.759192e-01 2.901878e-02 0.000000e+00  1.133535e+00 3.534975e-02 0.000000e+00  5.025677e-01 -1.190354e-02 0.000000e+00  1.605736e+00 -8.926751e-02 0.000000e+00  1.528988e+00 -6.297217e-02 0.000000e+00  7.539050e-01 3.620066e-02 0.000000e+00  7.982624e-01 2.719332e-02 0.000000e+00  0.000000e+00 0.000000e+00 0.000000e+00  1.329691e+00 1.264724e-01 0.000000e+00  1.619290e+00 5.667073e-02 0.000000e+00  5.264905e-01 -6.299294e-03 0.000000e+00  5.398785e-01 1.463508e-02 0.000000e+00  0.000000e+00 0.000000e+00 0.000000e+00  9.968471e-01 8.507451e-02 0.000000e+00  1.231425e+00 -4.665870e-02 0.000000e+00  7.018204e-01 -4.281827e-02 0.000000e+00  6.484260e-01 -3.648276e-02 0.000000e+00  0.000000e+00 0.000000e+00 0.000000e+00  9.830388e-01 -6.088207e-02 0.000000e+00  1.404657e+00 -2.195651e-01 0.000000e+00  1.602151e+00 -2.791509e-01 0.000000e+00  1.618547e+00 -3.661298e-01 0.000000e+00  1.397879e+00 -4.551347e-02 0.000000e+00  1.287441e+00 -1.260179e-01 0.000000e+00  0.000000e+00 0.000000e+00 0.000000e+00  1.231747e+00 7.421500e-01 0.000000e+00  1.522713e+00 4.436141e-01 0.000000e+00  8.289018e-01 1.236012e-03 0.000000e+00  8.010118e-01 -2.650021e-02 0.000000e+00  0.000000e+00 0.000000e+00 0.000000e+00  1.334005e+00 -1.277712e-01 0.000000e+00  1.667830e+00 -1.263973e-01 0.000000e+00  1.660513e+00 1.104785e-01 0.000000e+00  1.445616e+00 -2.198566e-02 0.000000e+00  1.034616e+00 -9.471320e-02 0.000000e+00  8.983787e-01 -2.179146e-02 0.000000e+00  0.000000e+00 0.000000e+00 0.000000e+00  1.816342e+00 -2.902184e-01 0.000000e+00  1.645008e+00 -5.377316e-02 0.000000e+00  1.685450e+00 -3.837345e-01 0.000000e+00  1.093309e+00 -3.878238e-01 0.000000e+00  7.287325e-01 2.485188e-02 0.000000e+00  7.702333e-01 2.262345e-02 0.000000e+00  0.000000e+00 0.000000e+00 0.000000e+00  1.332540e+00 6.717798e-02 0.000000e+00  1.544121e+00 2.890417e-01 0.000000e+00  1.450402e+00 2.651853e-01 0.000000e+00  9.097500e-01 3.251784e-02 0.000000e+00  9.634999e-01 -1.588166e-03 0.000000e+00  0.000000e+00 0.000000e+00 0.000000e+00  1.483342e+00 -2.208352e-01 0.000000e+00  1.592071e+00 -4.645315e-01 0.000000e+00  1.572280e+00 -2.929628e-01 0.000000e+00  8.706791e-01 -1.908320e-02 0.000000e+00  8.097279e-01 -1.801039e-02 0.000000e+00  0.000000e+00 0.000000e+00 0.000000e+00  8.053730e-01 3.968042e-02 0.000000e+00  3.263790e-01 -3.476283e-02 0.000000e+00  0.000000e+00 0.000000e+00 0.000000e+00  9.813347e-01 -1.239169e-01 0.000000e+00  9.204830e-01 -7.115249e-02 0.000000e+00  3.499934e-01 -6.411725e-03 0.000000e+00  5.294624e-01 -2.406086e-02 0.000000e+00  0.000000e+00 0.000000e+00 0.000000e+00  1.173141e+00 -1.157558e-01 0.000000e+00  9.459104e-01 -9.028157e-02 0.000000e+00  1.299084e+00 -2.073913e-01 0.000000e+00  5.837540e-01 -2.570132e-02 0.000000e+00  6.127985e-01 -1.103642e-02 0.000000e+00  0.000000e+00 0.000000e+00 0.000000e+00  1.500275e+00 -1.703120e-01 0.000000e+00  1.102972e+00 -3.030180e-02 0.000000e+00  1.551562e+00 -1.955559e-02 0.000000e+00  6.152933e-01 7.815240e-03 0.000000e+00  5.929312e-01 1.973770e-02 0.000000e+00  0.000000e+00 0.000000e+00 0.000000e+00  1.410287e+00 1.017100e-01 0.000000e+00  1.114637e+00 8.960501e-02 0.000000e+00  6.359876e-01 2.414407e-02 0.000000e+00  8.823264e-01 6.930321e-03 0.000000e+00  8.501223e-01 -1.680572e-02 0.000000e+00  0.000000e+00 0.000000e+00 0.000000e+00  1.612181e+00 -1.605195e-01 0.000000e+00  1.477337e+00 -2.581031e-01 0.000000e+00  1.531514e+00 6.708373e-02 0.000000e+00  1.132492e+00 1.079099e-01 0.000000e+00  5.487914e-01 9.565897e-03 0.000000e+00  0.000000e+00 0.000000e+00 0.000000e+00  9.913192e-01 4.372847e-02 0.000000e+00  1.289943e+00 4.905865e-02 0.000000e+00  1.396663e+00 -9.994609e-02 0.000000e+00  1.198660e+00 -1.071134e-01 0.000000e+00  0.000000e+00 0.000000e+00 0.000000e+00  1.293042e+00 8.625630e-02 0.000000e+00  1.381108e+00 8.150970e-02 0.000000e+00  0.000000e+00 0.000000e+00 0.000000e+00  9.907119e-01 8.001180e-02 0.000000e+00  8.545489e-01 5.118687e-01 0.000000e+00  1.741932e+00 6.097378e-01 0.000000e+00  1.032127e+00 -6.177174e-02 0.000000e+00  0.000000e+00 0.000000e+00 0.000000e+00  1.334480e+00 -2.385777e-01 0.000000e+00  1.673318e+00 -4.669890e-01 0.000000e+00  5.139930e-01 -3.841632e-01 0.000000e+00  8.754764e-01 -9.351505e-02 0.000000e+00  1.283537e+00 -2.267824e-02 0.000000e+00  1.196533e+00 1.913060e-01 0.000000e+00  1.136516e+00 1.125859e-01 0.000000e+00  0.000000e+00 0.000000e+00 0.000000e+00  1.011550e+00 8.901842e-02 0.000000e+00  1.128928e+00 2.185993e-02 0.000000e+00  0.000000e+00 0.000000e+00 0.000000e+00  -1.488480e-01 2.937765e-01 0.000000e+00  -2.455671e-01 4.653164e-01 0.000000e+00  -2.061086e-01 3.145318e-01 0.000000e+00  -2.687334e-01 2.364676e-01 0.000000e+00  9.572642e-01 -6.595571e-03 0.000000e+00  1.056799e+00 -1.923918e-02 0.000000e+00  7.828328e-01 -5.122298e-02 0.000000e+00  1.648657e+00 3.320711e-02 0.000000e+00  1.664381e+00 2.400337e-01 0.000000e+00  1.070813e+00 1.425623e-01 0.000000e+00  1.349372e+00 -1.976451e-02 0.000000e+00  6.589262e-01 -3.697289e-02 0.000000e+00  6.081983e-01 -2.791852e-02 0.000000e+00  0.000000e+00 0.000000e+00 0.000000e+00  6.906113e-01 3.793755e-03 0.000000e+00  6.814222e-01 1.346933e-02 0.000000e+00  0.000000e+00 0.000000e+00 0.000000e+00  1.177316e+00 -1.822285e-02 0.000000e+00  4.444375e-01 -1.273494e-02 0.000000e+00  4.494196e-01 -7.279332e-03 0.000000e+00  0.000000e+00 0.000000e+00 0.000000e+00  9.612360e-01 -6.067513e-03 0.000000e+00  6.298619e-01 4.648269e-03 0.000000e+00  8.438470e-01 -4.502601e-02 0.000000e+00  1.643793e+00 4.940897e-01 0.000000e+00  1.164682e+00 2.374441e-01 0.000000e+00  1.848954e+00 4.252273e-01 0.000000e+00  4.550945e-01 -1.131548e-02 0.000000e+00  4.603077e-01 6.102255e-03 0.000000e+00  0.000000e+00 0.000000e+00 0.000000e+00  9.994274e-01 -1.339217e-02 0.000000e+00  9.729579e-01 4.284587e-02 0.000000e+00  1.601727e+00 3.321311e-01 0.000000e+00  1.244883e+00 2.276167e-01 0.000000e+00  9.153673e-01 -5.020121e-02 0.000000e+00  1.076047e+00 -1.088164e-01 0.000000e+00  1.151095e+00 -5.439447e-02 0.000000e+00  1.162283e+00 -1.035932e-01 0.000000e+00  -1.464698e-01 1.339207e-01 0.000000e+00  -1.540067e-01 3.942754e-01 0.000000e+00  -2.588197e-01 9.659256e-01 0.000000e+00  -3.115948e-01 1.631825e-01 0.000000e+00  1.618270e+00 -1.912517e-01 0.000000e+00  1.457126e+00 -2.186080e-01 0.000000e+00  3.316272e-01 -8.584313e-04 0.000000e+00  3.149272e-01 -1.265507e-02 0.000000e+00  0.000000e+00 0.000000e+00 0.000000e+00  1.411011e+00 1.494905e-01 0.000000e+00  1.353239e+00 -2.314306e-02 0.000000e+00  1.686850e+00 7.467224e-02 0.000000e+00  3.907307e-01 4.810268e-02 0.000000e+00  0.000000e+00 0.000000e+00 0.000000e+00  5.444591e-01 1.036655e-01 0.000000e+00  1.336632e+00 -2.213244e-01 0.000000e+00  1.226075e+00 -9.530721e-02 0.000000e+00  1.611537e+00 -2.524605e-01 0.000000e+00  1.049798e+00 2.486318e-01 0.000000e+00  1.828262e+00 4.090359e-01 0.000000e+00  1.576667e+00 3.130573e-01 0.000000e+00  1.062367e+00 1.317443e-01 0.000000e+00  1.751230e+00 -1.095331e-01 0.000000e+00  1.601968e+00 -3.224589e-01 0.000000e+00  1.567446e+00 1.563157e-01 0.000000e+00  1.613663e+00 4.554505e-01 0.000000e+00  3.544881e-01 1.430073e-01 0.000000e+00  -1.162408e-01 2.540159e-01 0.000000e+00  -7.071068e-01 7.071068e-01 0.000000e+00  1.521491e+00 2.952467e-01 0.000000e+00  1.834443e+00 3.202889e-01 0.000000e+00  6.245346e-01 1.162206e-04 0.000000e+00  6.207346e-01 -5.248406e-03 0.000000e+00  0.000000e+00 0.000000e+00 0.000000e+00  1.264817e+00 -8.781837e-02 0.000000e+00  7.916201e-01 -3.196163e-02 0.000000e+00  1.203211e+00 6.593947e-02 0.000000e+00  1.518609e+00 6.172327e-02 0.000000e+00  1.003398e+00 -8.936447e-02 0.000000e+00  9.996458e-01 6.327554e-02 0.000000e+00  3.470202e-01 8.770498e-03 0.000000e+00  3.669401e-01 1.254312e-02 0.000000e+00  0.000000e+00 0.000000e+00 0.000000e+00  7.970535e-01 1.348428e-02 0.000000e+00  9.498217e-01 3.855689e-02 0.000000e+00  8.862594e-01 3.029432e-02 0.000000e+00  9.151611e-01 1.054626e-03 0.000000e+00  1.497275e+00 1.885608e-01 0.000000e+00  9.885373e-01 1.050008e-01 0.000000e+00  8.009026e-01 9.451873e-02 0.000000e+00  0.000000e+00 0.000000e+00 0.000000e+00  1.501732e+00 2.176200e-01 0.000000e+00  9.264157e-01 1.322793e-01 0.000000e+00  1.691692e+00 2.634749e-01 0.000000e+00  1.796231e+00 2.488825e-01 0.000000e+00  1.972105e+00 3.699228e-01 0.000000e+00  1.873250e+00 2.570607e-01 0.000000e+00  2.269582e+00 1.238787e-01 0.000000e+00  2.583376e+00 -7.176939e-02 0.000000e+00  1.547123e+00 5.728837e-01 0.000000e+00  4.656100e-01 -1.962998e-02 0.000000e+00  0.000000e+00 0.000000e+00 0.000000e+00  5.230155e-01 -3.993315e-02 0.000000e+00  1.808326e+00 6.933908e-03 0.000000e+00  4.781885e-01 -2.299341e-02 0.000000e+00  0.000000e+00 0.000000e+00 0.000000e+00  1.185529e+00 2.157614e-04 0.000000e+00  1.638191e+00 -3.186325e-01 0.000000e+00  1.462764e+00 -9.404970e-04 0.000000e+00  1.406250e+00 0.000000e+00 0.000000e+00  5.955849e-01 1.989424e-01 0.000000e+00  6.373998e-01 2.296556e-01 0.000000e+00  7.071068e-01 7.071068e-01 0.000000e+00  1.075693e+00 3.018938e-01 0.000000e+00  9.475318e-01 -6.405944e-01 0.000000e+00  8.658034e-01 -4.258940e-01 0.000000e+00  2.588197e-01 -9.659256e-01 0.000000e+00  1.280016e+00 -8.219818e-01 0.000000e+00  1.519422e+00 -1.392816e+00 0.000000e+00  1.469629e+00 -1.289236e-01 0.000000e+00  1.181155e+00 5.491437e-01 0.000000e+00  1.217581e+00 2.788319e-01 0.000000e+00  1.911335e-01 1.880124e-01 0.000000e+00  -3.382915e-01 1.394247e-01 0.000000e+00  1.447805e+00 3.650275e-01 0.000000e+00  7.811085e-01 -1.394876e-01 0.000000e+00  6.702501e-01 -6.830847e-02 0.000000e+00  0.000000e+00 0.000000e+00 0.000000e+00  1.112064e+00 -1.033691e-01 0.000000e+00  6.562500e-01 0.000000e+00 0.000000e+00  -9.070426e-02 -4.650644e-01 0.000000e+00  1.145324e+00 1.284093e-01 0.000000e+00  1.848273e+00 2.518741e-01 0.000000e+00  1.061644e+00 2.212425e-01 0.000000e+00  -5.352711e-01 -5.956835e-02 0.000000e+00  1.173889e+00 -2.502140e-01 0.000000e+00  1.396277e+00 -1.229922e-01 0.000000e+00  1.406250e+00 0.000000e+00 0.000000e+00  1.407170e+00 -5.273236e-01 0.000000e+00  1.561222e+00 -4.129965e-01 0.000000e+00  1.335153e+00 -3.669644e-01 0.000000e+00  2.028867e+00 -1.292067e+00 0.000000e+00  7.071068e-01 -7.071068e-01 0.000000e+00  1.826249e+00 3.140689e-01 0.000000e+00  -4.420467e-01 -2.856834e-01 0.000000e+00 