<?xml version="1.0"?>
<VTKFile type="UnstructuredGrid"  version="0.1"  >
<UnstructuredGrid>
<Piece  NumberOfPoints="525" NumberOfCells="924">
<Points>
<DataArray  type="Float32"  NumberOfComponents="3"  format="ascii">0 0 0  2.2 0 0  2.2 0.41 0  0 0.41 0  0.15 0.2 0  0.25 0.2 0  0.2 0.15 0  0.2 0.25 0  0.104762 0 0  0.209524 0 0  0.314286 0 0  0.419048 0 0  0.52381 0 0  0.628571 0 0  0.733333 0 0  0.838095 0 0  0.942857 0 0  1.04762 0 0  1.15238 0 0  1.25714 0 0  1.3619 0 0  1.46667 0 0  1.57143 0 0  1.67619 0 0  1.78095 0 0  1.88571 0 0  1.99048 0 0  2.09524 0 0  2.2 0.1025 0  2.2 0.205 0  2.2 0.3075 0  2.1 0.41 0  2 0.41 0  1.9 0.41 0  1.8 0.41 0  1.7 0.41 0  1.6 0.41 0  1.5 0.41 0  1.4 0.41 0  1.3 0.41 0  1.2 0.41 0  1.1 0.41 0  1 0.41 0  0.9 0.41 0  0.8 0.41 0  0.7 0.41 0  0.6 0.41 0  0.5 0.41 0  0.4 0.41 0  0.3 0.41 0  0.2 0.41 0  0.1 0.41 0  0 0.3075 0  0 0.205 0  0 0.1025 0  0.156699 0.225 0  0.175 0.243301 0  0.225 0.243301 0  0.243301 0.225 0  0.243301 0.175 0  0.225 0.156699 0  0.175 0.156699 0  0.156699 0.175 0  0.352033 0.262216 0  1.04579 0.252253 0  1.24065 0.243419 0  0.985775 0.171509 0  1.30324 0.187395 0  0.890988 0.190768 0  1.39085 0.202767 0  0.801464 0.204685 0  1.49904 0.204666 0  0.704267 0.202289 0  1.60238 0.204951 0  0.487789 0.19191 0  1.72935 0.219637 0  1.83335 0.187427 0  2.03359 0.193642 0  0.314663 0.307348 0  0.249039 0.333583 0  2.12147 0.253405 0  2.06373 0.0836837 0  0.0734726 0.267055 0  0.143989 0.0677174 0  0.0613613 0.33781 0  0.299628 0.236829 0  0.527114 0.295386 0  0.262384 0.26549 0  0.275777 0.18341 0  1.74578 0.330928 0  1.84001 0.302448 0  1.64998 0.313838 0  0.648421 0.302367 0  1.54544 0.308508 0  0.755686 0.306156 0  1.42668 0.314809 0  0.870524 0.298596 0  1.22553 0.112785 0  1.05603 0.147372 0  0.969346 0.329867 0  1.32527 0.276284 0  2.02914 0.29511 0  1.88168 0.119486 0  1.79545 0.104842 0  1.35688 0.0892539 0  1.69041 0.105324 0  0.914199 0.0955566 0  1.58234 0.102923 0  0.61843 0.10815 0  1.47999 0.101161 0  0.725217 0.104273 0  0.821727 0.102306 0  1.96725 0.105778 0  0.418624 0.241547 0  0.135226 0.239087 0  1.14921 0.314841 0  0.404508 0.333259 0  0.590155 0.206269 0  2.12554 0.150731 0  1.93166 0.22436 0  0.104689 0.190046 0  0.267856 0.0744753 0  0.269368 0.221581 0  0.434446 0.114927 0  1.0089 0.0793381 0  0.953023 0.246698 0  1.25853 0.33355 0  1.05268 0.340828 0  2.1369 0.067383 0  0.522398 0.112537 0  1.3421 0.348929 0  0.215186 0.289473 0  0.203197 0.335348 0  1.13984 0.190728 0  1.93813 0.330504 0  1.10505 0.0883705 0  0.341988 0.0824728 0  0.253113 0.138035 0  0.291932 0.131907 0  0.203713 0.102439 0  0.150375 0.134668 0  0.151494 0.309119 0  0.354384 0.17896 0  0.0685367 0.100776 0  0.424128 0.180088 0  0.474925 0.0568661 0  2.10843 0.347669 0  2.16073 0.280452 0  2.16073 0.229202 0  2.2 0.25625 0  2.07949 0.0418418 0  2.02711 0.0418418 0  2.04286 0 0  0.176756 0.0338587 0  0.124375 0.0338587 0  0.157143 0 0  0.0806807 0.373905 0  0.0306807 0.373905 0  0.05 0.41 0  0.0306807 0.322655 0  0 0.35875 0  0.281851 0.320466 0  0.27452 0.371791 0  0.307331 0.358674 0  0.067417 0.302432 0  0.0367363 0.287277 0  0.307146 0.272089 0  0.325831 0.249523 0  0.333348 0.284782 0  0.255711 0.299536 0  0.288524 0.286419 0  2.07531 0.274257 0  2.03137 0.244376 0  2.07753 0.223523 0  2.01549 0.0947309 0  1.97886 0.052889 0  2.00042 0.14971 0  2.04866 0.138663 0  0.472869 0.268466 0  0.453206 0.216728 0  0.507451 0.243648 0  2.16277 0.177866 0  2.16277 0.126615 0  2.2 0.15375 0  1.90667 0.171923 0  1.88251 0.205894 0  1.85752 0.153456 0  1.88583 0.263404 0  1.83668 0.244938 0  0.604293 0.15721 0  0.647211 0.204279 0  0.661349 0.15522 0  0.359586 0.320304 0  0.37827 0.297737 0  0.155113 0.241194 0  0.145962 0.232044 0  0.164645 0.235355 0  0.259539 0.179205 0  0.262888 0.191705 0  0.248296 0.187059 0  0.281006 0.251159 0  1.0209 0.15944 0  1.05091 0.199813 0  1.01578 0.211881 0  1.26438 0.15009 0  1.23309 0.178102 0  1.27195 0.215407 0  1.29121 0.101019 0  1.33006 0.138324 0  0.928528 0.0477783 0  0.876147 0.0477783 0  0.890476 0 0  0.902594 0.143162 0  0.949987 0.133533 0  0.938381 0.181138 0  0.867963 0.0989313 0  0.856357 0.146537 0  0.829911 0.051153 0  1.41178 0.0446269 0  1.35939 0.0446269 0  1.41429 0 0  1.37386 0.14601 0  1.34705 0.195081 0  1.41844 0.0952074 0  1.43542 0.151964 0  1.47333 0.0505805 0  0.77753 0.051153 0  0.785714 0 0  0.811595 0.153496 0  0.846226 0.197726 0  0.773472 0.10329 0  0.76334 0.154479 0  0.729275 0.0521365 0  1.52571 0.0505805 0  1.51905 0 0  1.48951 0.152913 0  1.44494 0.203716 0  1.53117 0.102042 0  1.54069 0.153795 0  1.57689 0.0514615 0  1.9804 0.259735 0  1.98262 0.209001 0  1.82001 0.356224 0  1.87 0.356224 0  1.85 0.41 0  1.78468 0.261043 0  1.78135 0.203532 0  1.72289 0.370464 0  1.77289 0.370464 0  1.75 0.41 0  1.7929 0.316688 0  1.73757 0.275282 0  1.62499 0.361919 0  1.67499 0.361919 0  1.65 0.41 0  1.69788 0.322383 0  1.68966 0.266738 0  1.62618 0.259394 0  1.66586 0.212294 0  0.624211 0.356183 0  0.674211 0.356183 0  0.65 0.41 0  0.619288 0.254318 0  0.676344 0.252328 0  1.52272 0.359254 0  1.57272 0.359254 0  1.55 0.41 0  1.59771 0.311173 0  1.57391 0.256729 0  1.52224 0.256587 0  1.55071 0.204809 0  0.727843 0.358078 0  0.777843 0.358078 0  0.75 0.41 0  0.702053 0.304261 0  0.729977 0.254223 0  0.778575 0.25542 0  0.752865 0.203487 0  1.41334 0.362405 0  1.46334 0.362405 0  1.45 0.41 0  1.48606 0.311659 0  1.46286 0.259738 0  1.40876 0.258788 0  0.835262 0.354298 0  0.885262 0.354298 0  0.85 0.41 0  0.813105 0.302376 0  0.835994 0.25164 0  0.880756 0.244682 0  0.934673 0.369934 0  0.984673 0.369934 0  0.95 0.41 0  0.919935 0.314231 0  0.676894 0.0521365 0  0.680952 0 0  0.714742 0.153281 0  0.671824 0.106212 0  0.623501 0.054075 0  1.62927 0.0514615 0  1.62381 0 0  1.59236 0.153937 0  1.63638 0.104124 0  1.6464 0.155137 0  1.6833 0.052662 0  1.73568 0.052662 0  1.72857 0 0  1.70988 0.16248 0  1.74293 0.105083 0  1.7624 0.16224 0  1.7882 0.052421 0  1.84058 0.052421 0  1.83333 0 0  1.8144 0.146135 0  1.83857 0.112164 0  1.88369 0.059743 0  1.12461 0.36242 0  1.17461 0.36242 0  1.15 0.41 0  1.31425 0.231839 0  1.28296 0.259852 0  1.35806 0.239526 0  1.37597 0.295546 0  1.92648 0.052889 0  1.9381 0 0  1.92447 0.112632 0  1.94945 0.165069 0  0.352254 0.37163 0  0.402254 0.37163 0  0.35 0.41 0  0.513557 0.352693 0  0.563557 0.352693 0  0.55 0.41 0  0.587767 0.298876 0  0.558634 0.250827 0  0.538972 0.19909 0  0.452254 0.37163 0  0.45 0.41 0  0.465811 0.314323 0  0.411566 0.287403 0  0.385328 0.251881 0  0.119958 0.214566 0  0.0890808 0.22855 0  0.104349 0.253071 0  0.22452 0.371791 0  0.25 0.41 0  0.291071 0.0372376 0  0.23869 0.0372376 0  0.261905 0 0  0.265876 0.243536 0  0.256335 0.223291 0  0.252842 0.245245 0  0.284498 0.229205 0  1.03246 0.113355 0  0.997337 0.125424 0  0.961549 0.0874474 0  0.922006 0.218733 0  0.969399 0.209103 0  0.961184 0.288282 0  0.911774 0.272647 0  1.22926 0.371775 0  1.27927 0.371775 0  1.25 0.41 0  1.02634 0.375414 0  1.07634 0.375414 0  1.05 0.41 0  1.01101 0.335348 0  2.11607 0.0336915 0  2.16845 0.0336915 0  2.14762 0 0  2.16845 0.0849415 0  2.2 0.05125 0  2.10032 0.0755333 0  0.556277 0.159403 0  0.570414 0.110343 0  0.505093 0.152224 0  1.32105 0.379464 0  1.37105 0.379464 0  1.35 0.41 0  1.33369 0.312607 0  1.38439 0.331869 0  0.999406 0.249476 0  1.00757 0.29106 0  1.30031 0.34124 0  1.2919 0.304917 0  2.13122 0.109057 0  2.09464 0.117207 0  0.272572 0.202495 0  0.259684 0.21079 0  0.248296 0.212941 0  0.287702 0.21012 0  2.1235 0.202068 0  2.07956 0.172187 0  1.02826 0.039669 0  0.975878 0.039669 0  0.995238 0 0  1.04923 0.29654 0  1.10095 0.327835 0  1.0975 0.283547 0  0.57112 0.054075 0  0.576191 0 0  0.523104 0.0562685 0  1.24959 0.288485 0  1.20387 0.324195 0  1.19493 0.27913 0  0.238785 0.277481 0  0.232112 0.311528 0  0.226118 0.334465 0  0.201599 0.372674 0  1.14453 0.252784 0  1.19024 0.217074 0  1.09281 0.221491 0  0.209191 0.31241 0  0.220093 0.266387 0  0.243692 0.254395 0  0.235355 0.235355 0  0.478422 0.113732 0  0.461117 0.153419 0  1.91906 0.370252 0  1.96907 0.370252 0  1.95 0.41 0  1.98364 0.312807 0  2.01457 0.352555 0  1.88907 0.316476 0  1.9349 0.277432 0  1.18268 0.151757 0  1.09794 0.16905 0  1.12872 0.0441853 0  1.07634 0.0441853 0  1.1 0 0  1.05697 0.0838543 0  1.08054 0.117871 0  1.12244 0.139549 0  1.16529 0.100578 0  0.304922 0.078474 0  0.328137 0.0412364 0  0.380518 0.0412364 0  0.366667 0 0  0.388217 0.0986999 0  0.426747 0.0574635 0  0.31696 0.10719 0  0.279894 0.103191 0  0.272523 0.134971 0  0.260485 0.106255 0  0.228413 0.120237 0  0.214357 0.129569 0  0.239057 0.147367 0  1.30701 0.0446269 0  1.30952 0 0  1.24133 0.0563925 0  0.235785 0.0884571 0  1.18895 0.0563925 0  1.20476 0 0  0.206618 0.0512195 0  0.173851 0.0850782 0  0.0367363 0.236028 0  0 0.25625 0  0.264445 0.160722 0  0.248207 0.156517 0  0.235355 0.164645 0  0.283855 0.157658 0  0.130694 0.182523 0  0.127344 0.195023 0  0.151704 0.187059 0  0.127532 0.162357 0  0.153537 0.154834 0  0.0523445 0.197523 0  0.14336 0.274103 0  0.112483 0.288087 0  0.31508 0.181185 0  0.327006 0.207895 0  0.323158 0.155434 0  0.0866493 0.050388 0  0.0342684 0.050388 0  0.052381 0 0  0.0342684 0.101638 0  0 0.05125 0  0.421376 0.210817 0  0.455958 0.185999 0  0.429287 0.147508 0  0.106428 0.323464 0  0.353208 0.220588 0  0.106263 0.0842467 0  0.0342684 0.152888 0  0 0.15375 0  0.109456 0.117722 0  0.147182 0.101193 0  0.0866129 0.145411 0  0.162687 0.145684 0  0.164645 0.164645 0  0.348186 0.130716 0  0.386504 0.210254 0  0.389256 0.179524 0  0.394415 0.146944 0  0.125747 0.359559 0  0.175747 0.359559 0  0.15 0.41 0  0.177345 0.322233 0  0.142613 0.219544 0  0.151704 0.212941 0  0.499367 0.0284331 0  0.446986 0.0284331 0  0.471429 0 0  0.498661 0.0847016 0  0.454685 0.0858966 0  0.201856 0.126219 0  0.212941 0.151704 0  0.18334 0.299296 0  0.175187 0.142334 0  0.187059 0.151704 0  0.177044 0.118554 0  2.15421 0.327585 0  2.15421 0.378834 0  2.2 0.35875 0  2.10421 0.378834 0  2.15 0.41 0  2.05422 0.378
[...]
<PointData  Vectors="u"> 
<DataArray  type="Float32"  Name="u"  NumberOfComponents="3" format="ascii">0.000000e+00 0.000000e+00 0.000000e+00  0.000000e+00 0.000000e+00 0.000000e+00  0.000000e+00 0.000000e+00 0.000000e+00  0.000000e+00 0.000000e+00 0.000000e+00  0.000000e+00 -1.000000e+00 0.000000e+00  0.000000e+00 1.000000e+00 0.000000e+00  1.000000e+00 0.000000e+00 0.000000e+00  -1.000000e+00 0.000000e+00 0.000000e+00  0.000000e+00 0.000000e+00 0.000000e+00  0.000000e+00 0.000000e+00 0.000000e+00  0.000000e+00 0.000000e+00 0.000000e+00  0.000000e+00 0.000000e+00 0.000000e+00  0.000000e+00 0.000000e+00 0.000000e+00  0.000000e+00 0.000000e+00 0.000000e+00  0.000000e+00 0.000000e+00 0.000000e+00  0.000000e+00 0.000000e+00 0.000000e+00  0.000000e+00 0.000000e+00 0.000000e+00  0.000000e+00 0.000000e+00 0.000000e+00  0.000000e+00 0.000000e+00 0.000000e+00  0.000000e+00 0.000000e+00 0.000000e+00  0.000000e+00 0.000000e+00 0.000000e+00  0.000000e+00 0.000000e+00 0.000000e+00  0.000000e+00 0.000000e+00 0.000000e+00  0.000000e+00 0.000000e+00 0.000000e+00  0.000000e+00 0.000000e+00 0.000000e+00  0.000000e+00 0.000000e+00 0.000000e+00  0.000000e+00 0.000000e+00 0.000000e+00  0.000000e+00 0.000000e+00 0.000000e+00  1.080847e+00 -8.841239e-02 0.000000e+00  1.587455e+00 -2.710776e-01 0.000000e+00  1.063301e+00 -7.449169e-02 0.000000e+00  0.000000e+00 0.000000e+00 0.000000e+00  0.000000e+00 0.000000e+00 0.000000e+00  0.000000e+00 0.000000e+00 0.000000e+00  0.000000e+00 0.000000e+00 0.000000e+00  0.000000e+00 0.000000e+00 0.000000e+00  0.000000e+00 0.000000e+00 0.000000e+00  0.000000e+00 0.000000e+00 0.000000e+00  0.000000e+00 0.000000e+00 0.000000e+00  0.000000e+00 0.000000e+00 0.000000e+00  0.000000e+00 0.000000e+00 0.000000e+00  0.000000e+00 0.000000e+00 0.000000e+00  0.000000e+00 0.000000e+00 0.000000e+00  0.000000e+00 0.000000e+00 0.000000e+00  0.000000e+00 0.000000e+00 0.000000e+00  0.000000e+00 0.000000e+00 0.000000e+00  0.000000e+00 0.000000e+00 0.000000e+00  0.000000e+00 0.000000e+00 0.000000e+00  0.000000e+00 0.000000e+00 0.000000e+00  0.000000e+00 0.000000e+00 0.000000e+00  0.000000e+00 0.000000e+00 0.000000e+00  0.000000e+00 0.000000e+00 0.000000e+00  1.125000e+00 0.000000e+00 0.000000e+00  1.500000e+00 0.000000e+00 0.000000e+00  1.125000e+00 0.000000e+00 0.000000e+00  -5.000023e-01 -8.660241e-01 0.000000e+00  -8.660241e-01 -5.000023e-01 0.000000e+00  -8.660241e-01 5.000023e-01 0.000000e+00  -5.000023e-01 8.660241e-01 0.000000e+00  5.000023e-01 8.660241e-01 0.000000e+00  8.660241e-01 5.000023e-01 0.000000e+00  8.660241e-01 -5.000023e-01 0.000000e+00  5.000023e-01 -8.660241e-01 0.000000e+00  9.335940e-02 2.854421e-01 0.000000e+00  1.540113e+00 1.528611e-02 0.000000e+00  1.702827e+00 -1.852334e-02 0.000000e+00  1.486279e+00 -1.534463e-01 0.000000e+00  1.353595e+00 -2.282195e-01 0.000000e+00  1.140429e+00 -3.588343e-01 0.000000e+00  1.659230e+00 -3.214186e-01 0.000000e+00  1.344890e+00 9.603539e-03 0.000000e+00  1.591899e+00 1.351728e-01 0.000000e+00  1.715443e+00 4.992809e-01 0.000000e+00  1.447804e+00 2.365939e-01 0.000000e+00  4.840801e-01 -7.128469e-02 0.000000e+00  1.600807e+00 -2.946710e-01 0.000000e+00  1.625248e+00 -1.893128e-01 0.000000e+00  1.488832e+00 1.576864e-01 0.000000e+00  1.875834e+00 1.441228e-01 0.000000e+00  1.629326e+00 2.843501e-01 0.000000e+00  1.587752e+00 -1.680173e-01 0.000000e+00  8.105649e-01 -7.692376e-03 0.000000e+00  1.279630e+00 6.820118e-02 0.000000e+00  1.243677e+00 -2.333950e-01 0.000000e+00  8.959768e-01 8.292104e-02 0.000000e+00  -3.018604e-01 3.531124e-02 0.000000e+00  1.528329e+00 -4.322245e-01 0.000000e+00  1.271646e-01 4.525774e-02 0.000000e+00  1.215469e-01 -9.809395e-02 0.000000e+00  1.021407e+00 -9.358721e-02 0.000000e+00  1.049671e+00 -2.641568e-02 0.000000e+00  1.341796e+00 -3.261412e-02 0.000000e+00  7.602959e-01 8.788019e-02 0.000000e+00  1.188771e+00 1.237707e-01 0.000000e+00  1.398782e+00 -8.975620e-02 0.000000e+00  1.001749e+00 -4.890728e-02 0.000000e+00  1.760632e+00 -2.811997e-01 0.000000e+00  9.681092e-01 6.182788e-02 0.000000e+00  1.411077e+00 2.375895e-03 0.000000e+00  9.830730e-01 -2.142554e-02 0.000000e+00  1.548902e+00 -2.764409e-01 0.000000e+00  1.354804e+00 4.370974e-02 0.000000e+00  1.245639e+00 2.323779e-03 0.000000e+00  1.044301e+00 -9.036107e-02 0.000000e+00  8.340608e-01 -7.717686e-02 0.000000e+00  8.985248e-01 -3.599185e-02 0.000000e+00  9.382372e-01 6.611081e-04 0.000000e+00  9.601030e-01 7.948071e-02 0.000000e+00  1.198974e+00 1.959027e-01 0.000000e+00  1.053196e+00 4.549523e-03 0.000000e+00  8.700660e-01 -1.940390e-02 0.000000e+00  9.625319e-01 -1.085092e-01 0.000000e+00  1.053309e+00 7.223241e-02 0.000000e+00  3.013373e-01 1.246008e-01 0.000000e+00  8.572363e-01 3.260591e-01 0.000000e+00  1.245692e+00 6.244298e-02 0.000000e+00  1.885185e+00 -1.748667e-01 0.000000e+00  1.352528e+00 7.779351e-02 0.000000e+00  1.242442e+00 -1.315305e-01 0.000000e+00  1.540517e+00 2.017789e-01 0.000000e+00  1.205238e+00 -3.232023e-01 0.000000e+00  1.503888e+00 1.494501e-01 0.000000e+00  -1.411808e-01 -2.655577e-02 0.000000e+00  1.409319e+00 1.995963e-01 0.000000e+00  7.124807e-01 -4.919140e-02 0.000000e+00  1.631027e+00 -4.213361e-01 0.000000e+00  1.206740e+00 -4.210694e-02 0.000000e+00  1.007702e+00 -1.370304e-02 0.000000e+00  7.325429e-01 -4.848011e-02 0.000000e+00  1.386406e+00 1.026584e-01 0.000000e+00  9.103062e-01 -7.037514e-02 0.000000e+00  1.758375e+00 5.855449e-01 0.000000e+00  1.412895e+00 3.148442e-01 0.000000e+00  1.419295e+00 2.592437e-01 0.000000e+00  9.643078e-01 6.581738e-02 0.000000e+00  8.506831e-01 -1.124193e-02 0.000000e+00  1.387804e+00 2.509917e-01 0.000000e+00  2.113153e+00 4.634976e-01 0.000000e+00  2.016253e+00 4.067658e-01 0.000000e+00  2.057068e+00 -1.781909e-01 0.000000e+00  1.814071e+00 -1.023413e+00 0.000000e+00  1.273620e+00 4.437485e-01 0.000000e+00  1.055885e+00 4.941556e-01 0.000000e+00  1.169826e+00 -2.390223e-01 0.000000e+00  9.206152e-01 3.526138e-01 0.000000e+00  7.262996e-01 5.240170e-02 0.000000e+00  8.438139e-01 -2.980859e-02 0.000000e+00  1.392760e+00 -1.771780e-01 0.000000e+00  1.598242e+00 -2.571823e-01 0.000000e+00  1.460349e+00 -2.222935e-01 0.000000e+00  4.701265e-01 -7.794446e-03 0.000000e+00  4.669283e-01 8.869282e-03 0.000000e+00  0.000000e+00 0.000000e+00 0.000000e+00  9.484337e-01 -3.754259e-02 0.000000e+00  7.542021e-01 -9.468652e-02 0.000000e+00  0.000000e+00 0.000000e+00 0.000000e+00  5.512218e-01 7.032949e-02 0.000000e+00  4.893020e-01 2.861975e-02 0.000000e+00  0.000000e+00 0.000000e+00 0.000000e+00  1.026042e+00 5.021007e-02 0.000000e+00  6.562500e-01 0.000000e+00 0.000000e+00  1.869801e+00 2.458816e-01 0.000000e+00  1.309242e+00 6.854311e-02 0.000000e+00  1.493061e+00 6.354276e-02 0.000000e+00  1.155049e+00 1.160304e-01 0.000000e+00  1.273637e+00 4.823220e-02 0.000000e+00  2.991313e-01 9.490338e-02 0.000000e+00  -2.252756e-01 1.654670e-01 0.000000e+00  9.202656e-01 6.964318e-02 0.000000e+00  1.847065e+00 3.684564e-01 0.000000e+00  1.058420e+00 7.885533e-02 0.000000e+00  1.522010e+00 -4.126313e-02 0.000000e+00  1.541315e+00 1.512493e-01 0.000000e+00  1.574954e+00 -1.147297e-02 0.000000e+00  9.092038e-01 3.998986e-02 0.000000e+00  5.916871e-01 2.102495e-02 0.000000e+00  1.305576e+00 1.398282e-01 0.000000e+00  1.155367e+00 4.362886e-02 0.000000e+00  1.617973e+00 -4.429960e-01 0.000000e+00  -9.057575e-02 -2.054665e-01 0.000000e+00  1.037921e+00 -5.554264e-01 0.000000e+00  1.450014e+00 -2.310529e-01 0.000000e+00  1.156819e+00 -1.371611e-01 0.000000e+00  1.391385e+00 -1.989834e-01 0.000000e+00  1.586307e+00 8.556264e-02 0.000000e+00  1.632782e+00 5.479803e-05 0.000000e+00  1.487741e+00 -6.530281e-02 0.000000e+00  1.290413e+00 6.253733e-02 0.000000e+00  1.499792e+00 -1.490813e-01 0.000000e+00  1.790649e+00 2.824812e-01 0.000000e+00  1.773540e+00 4.514450e-01 0.000000e+00  1.606938e+00 3.277551e-01 0.000000e+00  2.011897e+00 1.396692e-02 0.000000e+00  1.709829e+00 -7.865968e-02 0.000000e+00  8.303306e-01 7.507861e-01 0.000000e+00  6.191955e-01 5.093531e-01 0.000000e+00  -7.071068e-01 -7.071068e-01 0.000000e+00  4.517034e-02 9.816256e-02 0.000000e+00  9.446057e-03 2.169582e-02 0.000000e+00  2.588197e-01 9.659256e-01 0.000000e+00  -1.120277e-01 7.479068e-02 0.000000e+00  1.527068e+00 -3.976012e-02 0.000000e+00  1.641920e+00 4.236626e-02 0.000000e+00  1.631026e+00 -1.206992e-01 0.000000e+00  9.658635e-01 -2.123287e-02 0.000000e+00  1.122276e+00 3.986402e-02 0.000000e+00  1.553666e+00 -1.477902e-01 0.000000e+00  8.890562e-01 -3.114005e-02 0.000000e+00  1.104821e+00 -1.318687e-01 0.000000e+00  3.705734e-01 -5.979596e-03 0.000000e+00  3.571102e-01 -7.482124e-03 0.000000e+00  0.000000e+00 0.000000e+00 0.000000e+00  1.076681e+00 -2.447648e-02 0.000000e+00  1.271141e+00 1.764423e-02 0.000000e+00  1.268089e+00 -2.966284e-01 0.000000e+00  9.881281e-01 -4.857132e-02 0.000000e+00  8.907887e-01 -8.387964e-02 0.000000e+00  3.681130e-01 -2.780373e-02 0.000000e+00  4.796036e-01 -1.991475e-02 0.000000e+00  4.495307e-01 -2.924035e-02 0.000000e+00  0.000000e+00 0.000000e+00 0.000000e+00  1.259734e+00 -1.751980e-01 0.000000e+00  1.534959e+00 -3.561685e-01 0.000000e+00  9.677373e-01 -6.553324e-02 0.000000e+00  1.436233e+00 -1.039403e-01 0.000000e+00  5.601129e-01 4.173717e-05 0.000000e+00  3.194551e-01 -2.961475e-02 0.000000e+00  0.000000e+00 0.000000e+00 0.000000e+00  8.284746e-01 -8.143583e-02 0.000000e+00  1.145756e+00 -2.390733e-01 0.000000e+00  9.010432e-01 -1.144146e-01 0.000000e+00  1.009538e+00 2.514331e-02 0.000000e+00  3.131760e-01 -1.922096e-02 0.000000e+00  5.520105e-01 1.403047e-02 0.000000e+00  0.000000e+00 0.000000e+00 0.000000e+00  1.449770e+00 5.266508e-02 0.000000e+00  1.669065e+00 -1.207663e-01 0.000000e+00  1.029122e+00 6.392919e-02 0.000000e+00  1.367638e+00 1.625522e-01 0.000000e+00  5.357217e-01 1.815516e-02 0.000000e+00  1.411464e+00 2.329805e-01 0.000000e+00  1.547350e+00 2.641712e-01 0.000000e+00  6.813092e-01 -1.468535e-02 0.000000e+00  6.897154e-01 1.206991e-02 0.000000e+00  0.000000e+00 0.000000e+00 0.000000e+00  1.496839e+00 -2.648386e-01 0.000000e+00  1.595175e+00 -3.215743e-01 0.000000e+00  5.965183e-01 -3.232628e-02 0.000000e+00  5.490373e-01 -2.521006e-02 0.000000e+00  0.000000e+00 0.000000e+00 0.000000e+00  1.045227e+00 -9.071622e-02 0.000000e+00  1.527955e+00 -2.262342e-01 0.000000e+00  7.731387e-01 4.283619e-03 0.000000e+00  7.571317e-01 -2.117155e-02 0.000000e+00  0.000000e+00 0.000000e+00 0.000000e+00  1.222845e+00 -8.905536e-02 0.000000e+00  1.638579e+00 -1.236064e-01 0.000000e+00  1.613511e+00 1.560204e-01 0.000000e+00  1.512311e+00 -2.691831e-02 0.000000e+00  1.159300e+00 1.462808e-01 0.000000e+00  1.313324e+00 1.125834e-01 0.000000e+00  0.000000e+00 0.000000e+00 0.000000e+00  1.215256e+00 -2.618684e-02 0.000000e+00  1.324922e+00 4.478126e-01 0.000000e+00  7.473475e-01 2.941110e-02 0.000000e+00  7.956933e-01 3.304020e-02 0.000000e+00  0.000000e+00 0.000000e+00 0.000000e+00  1.311194e+00 7.066001e-02 0.000000e+00  1.513694e+00 2.985763e-01 0.000000e+00  1.419337e+00 2.682808e-01 0.000000e+00  1.506827e+00 2.800693e-01 0.000000e+00  1.303692e+00 -2.793500e-02 0.000000e+00  1.205065e+00 -6.960477e-02 0.000000e+00  0.000000e+00 0.000000e+00 0.000000e+00  1.008825e+00 6.771720e-02 0.000000e+00  1.485238e+00 5.898915e-01 0.000000e+00  1.610031e+00 4.161914e-01 0.000000e+00  1.492931e+00 3.079546e-01 0.000000e+00  6.762594e-01 -2.144221e-02 0.000000e+00  6.705386e-01 5.245675e-03 0.000000e+00  0.000000e+00 0.000000e+00 0.000000e+00  1.038692e+00 6.762369e-02 0.000000e+00  1.362209e+00 3.659914e-02 0.000000e+00  1.423332e+00 -2.194316e-01 0.000000e+00  1.070910e+00 -5.277060e-02 0.000000e+00  9.403666e-01 -1.619108e-02 0.000000e+00  0.000000e+00 0.000000e+00 0.000000e+00  1.742551e+00 -2.187986e-01 0.000000e+00  1.691998e+00 -3.522755e-03 0.000000e+00  1.654161e+00 -2.948845e-01 0.000000e+00  7.869391e-01 -9.024058e-03 0.000000e+00  7.781942e-01 -2.925618e-02 0.000000e+00  0.000000e+00 0.000000e+00 0.000000e+00  1.332749e+00 -1.368852e-01 0.000000e+00  3.140590e-01 1.671902e-02 0.000000e+00  0.000000e+00 0.000000e+00 0.000000e+00  1.330236e+00 1.755237e-01 0.000000e+00  9.876197e-01 1.127966e-01 0.000000e+00  3.910110e-01 3.867196e-02 0.000000e+00  5.118287e-01 9.931130e-03 0.000000e+00  0.000000e+00 0.000000e+00 0.000000e+00  1.249801e+00 1.699705e-01 0.000000e+00  8.990241e-01 3.809188e-02 0.000000e+00  1.175918e+00 5.954658e-02 0.000000e+00  5.250746e-01 -8.794568e-03 0.000000e+00  5.499513e-01 -2.352475e-02 0.000000e+00  0.000000e+00 0.000000e+00 0.000000e+00  1.251454e+00 -1.377963e-01 0.000000e+00  9.576184e-01 -9.219903e-02 0.000000e+00  1.360737e+00 -2.296734e-01 0.000000e+00  5.903645e-01 -2.651124e-02 0.000000e+00  6.228359e-01 -1.451439e-02 0.000000e+00  0.000000e+00 0.000000e+00 0.000000e+00  1.382321e+00 -1.595508e-01 0.000000e+00  1.161258e+00 -5.987205e-02 0.000000e+00  7.021309e-01 1.949660e-03 0.000000e+00  8.547846e-01 9.348354e-03 0.000000e+00  8.526296e-01 2.171672e-02 0.000000e+00  0.000000e+00 0.000000e+00 0.000000e+00  1.651379e+00 -3.446729e-01 0.000000e+00  1.713924e+00 -2.124430e-01 0.000000e+00  1.637960e+00 -3.798653e-01 0.000000e+00  1.230279e+00 -1.858850e-01 0.000000e+00  6.229863e-01 1.755975e-02 0.000000e+00  0.000000e+00 0.000000e+00 0.000000e+00  1.161777e+00 6.222824e-02 0.000000e+00  1.500888e+00 1.658609e-01 0.000000e+00  1.502220e+00 -5.192193e-02 0.000000e+00  1.441130e+00 -1.292816e-01 0.000000e+00  0.000000e+00 0.000000e+00 0.000000e+00  1.207909e+00 -1.502727e-01 0.000000e+00  1.074560e+00 4.200016e-02 0.000000e+00  0.000000e+00 0.000000e+00 0.000000e+00  1.051055e+00 -7.628424e-02 0.000000e+00  1.097188e+00 -6.075876e-01 0.000000e+00  8.397728e-01 -1.260605e-01 0.000000e+00  1.159602e+00 -1.661460e-01 0.000000e+00  0.000000e+00 0.000000e+00 0.000000e+00  1.816989e+00 -4.690458e-01 0.000000e+00  1.541002e+00 -1.512551e-01 0.000000e+00  1.238379e-01 3.518310e-01 0.000000e+00  8.750822e-01 -1.408468e-01 0.000000e+00  1.281229e+00 -5.540219e-02 0.000000e+00  1.185682e+00 1.535358e-01 0.000000e+00  1.108997e+00 1.240788e-01 0.000000e+00  0.000000e+00 0.000000e+00 0.000000e+00  1.002076e+00 1.038219e-01 0.000000e+00  1.154027e+00 2.914362e-02 0.000000e+00  0.000000e+00 0.000000e+00 0.000000e+00  -1.500524e-01 5.145523e-02 0.000000e+00  -1.551247e-01 1.890303e-01 0.000000e+00  -1.729141e-01 1.082589e-01 0.000000e+00  -2.486454e-01 -2.113268e-02 0.000000e+00  1.087652e+00 -4.814276e-02 0.000000e+00  1.252513e+00 -7.126284e-03 0.000000e+00  8.046743e-01 -1.419983e-02 0.000000e+00  1.469866e+00 -4.032193e-01 0.000000e+00  1.524556e+00 -2.996561e-01 0.000000e+00  1.371574e+00 -2.432203e-01 0.000000e+00  1.690970e+00 -4.036001e-01 0.000000e+00  7.113674e-01 8.859411e-04 0.000000e+00  6.957601e-01 -1.306455e-02 0.000000e+00  0.000000e+00 0.000000e+00 0.000000e+00  6.798857e-01 -1.492539e-02 0.000000e+00  6.297695e-01 -1.231202e-02 0.000000e+00  0.000000e+00 0.000000e+00 0.000000e+00  9.419485e-01 -2.070788e-02 0.000000e+00  3.983917e-01 -1.455266e-02 0.000000e+00  4.317043e-01 -2.142633e-02 0.000000e+00  0.000000e+00 0.000000e+00 0.000000e+00  9.027933e-01 -7.278964e-02 0.000000e+00  6.377505e-01 -2.333273e-02 0.000000e+00  7.626843e-01 -3.414627e-02 0.000000e+00  1.747572e+00 9.140518e-02 0.000000e+00  1.331567e+00 1.702320e-01 0.000000e+00  1.616451e+00 1.107909e-02 0.000000e+00  5.317610e-01 -2.575672e-02 0.000000e+00  4.821896e-01 -1.892741e-02 0.000000e+00  0.000000e+00 0.000000e+00 0.000000e+00  1.264766e+00 -1.403009e-01 0.000000e+00  9.862231e-01 -8.581727e-02 0.000000e+00  1.580770e+00 -2.451683e-01 0.000000e+00  1.126771e+00 -7.245880e-02 0.000000e+00  1.078696e+00 -5.797974e-02 0.000000e+00  1.448268e+00 -1.324054e-01 0.000000e+00  1.002406e+00 -8.660481e-02 0.000000e+00  1.018827e+00 -5.220735e-02 0.000000e+00  -2.437081e-02 -1.189667e-01 0.000000e+00  -7.215626e-02 1.348399e-01 0.000000e+00  -2.588197e-01 9.659256e-01 0.000000e+00  -1.489465e-01 -8.594795e-02 0.000000e+00  1.530396e+00 -1.734817e-01 0.000000e+00  1.352439e+00 -1.029947e-02 0.000000e+00  3.389486e-01 -1.783628e-02 0.000000e+00  3.065069e-01 -1.292954e-02 0.000000e+00  0.000000e+00 0.000000e+00 0.000000e+00  1.003080e+00 6.136414e-02 0.000000e+00  1.065496e+00 2.966219e-02 0.000000e+00  1.269281e+00 2.100555e-01 0.000000e+00  4.659083e-01 5.252626e-02 0.000000e+00  0.000000e+00 0.000000e+00 0.000000e+00  6.114667e-01 4.268373e-02 0.000000e+00  1.666964e+00 -3.217185e-02 0.000000e+00  1.332204e+00 1.822526e-02 0.000000e+00  1.638284e+00 1.547539e-01 0.000000e+00  9.861622e-01 2.018028e-01 0.000000e+00  1.783610e+00 4.141618e-01 0.000000e+00  1.534398e+00 3.221415e-01 0.000000e+00  1.033184e+00 1.373624e-01 0.000000e+00  1.627635e+00 3.416917e-01 0.000000e+00  1.529851e+00 2.332638e-01 0.000000e+00  1.628353e+00 2.417636e-01 0.000000e+00  1.579004e+00 4.560599e-01 0.000000e+00  3.435312e-01 1.294902e-01 0.000000e+00  -1.049269e-01 1.172961e-01 0.000000e+00  -7.071068e-01 7.071068e-01 0.000000e+00  1.370756e+00 9.437200e-02 0.000000e+00  1.453084e+00 1.263629e-01 0.000000e+00  5.550529e-01 1.396612e-02 0.000000e+00  5.949780e-01 2.213285e-02 0.000000e+00  0.000000e+00 0.000000e+00 0.000000e+00  1.155464e+00 7.187583e-02 0.000000e+00  8.398071e-01 2.282361e-02 0.000000e+00  9.586278e-01 6.262476e-02 0.000000e+00  1.228159e+00 1.793062e-01 0.000000e+00  1.010219e+00 1.152772e-01 0.000000e+00  1.440253e+00 1.340150e-01 0.000000e+00  4.039233e-01 1.338339e-02 0.000000e+00  4.074168e-01 -8.786193e-03 0.000000e+00  0.000000e+00 0.000000e+00 0.000000e+00  7.874590e-01 -5.289152e-02 0.000000e+00  1.080026e+00 -3.523864e-02 0.000000e+00  1.142433e+00 5.399261e-02 0.000000e+00  9.396861e-01 5.254927e-02 0.000000e+00  1.491148e+00 2.334718e-01 0.000000e+00  9.395131e-01 1.288748e-01 0.000000e+00  7.145375e-01 1.083318e-01 0.000000e+00  0.000000e+00 0.000000e+00 0.000000e+00  1.380096e+00 2.946762e-01 0.000000e+00  8.571969e-01 1.065606e-01 0.000000e+00  1.701027e+00 3.512815e-01 0.000000e+00  1.824262e+00 3.019976e-01 0.000000e+00  2.048066e+00 4.144893e-01 0.000000e+00  1.908812e+00 2.978702e-01 0.000000e+00  2.313717e+00 1.459928e-01 0.000000e+00  2.644320e+00 -6.548016e-02 0.000000e+00  1.615946e+00 6.005149e-01 0.000000e+00  4.026752e-01 -2.007368e-02 0.000000e+00  0.000000e+00 0.000000e+00 0.000000e+00  4.829357e-01 -7.469931e-04 0.000000e+00  1.840150e+00 2.388579e-02 0.000000e+00  4.946298e-01 2.519215e-02 0.000000e+00  0.000000e+00 0.000000e+00 0.000000e+00  1.207766e+00 5.616985e-03 0.000000e+00  1.666516e+00 -3.265358e-01 0.000000e+00  1.463535e+00 -1.343214e-02 0.000000e+00  1.406250e+00 0.000000e+00 0.000000e+00  6.576304e-01 1.951029e-01 0.000000e+00  6.655538e-01 2.216400e-01 0.000000e+00  7.071068e-01 7.071068e-01 0.000000e+00  1.220722e+00 3.183915e-01 0.000000e+00  9.587766e-01 -6.845106e-01 0.000000e+00  8.676303e-01 -4.723398e-01 0.000000e+00  2.588197e-01 -9.659256e-01 0.000000e+00  1.301217e+00 -8.759844e-01 0.000000e+00  1.557365e+00 -1.448191e+00 0.000000e+00  1.471060e+00 -1.481384e-01 0.000000e+00  1.158769e+00 5.152722e-01 0.000000e+00  1.204467e+00 2.522439e-01 0.000000e+00  5.069079e-01 1.436876e-01 0.000000e+00  -1.530618e-01 2.010251e-01 0.000000e+00  1.749681e+00 4.787417e-01 0.000000e+00  7.868603e-01 -1.473229e-01 0.000000e+00  6.715807e-01 -7.200197e-02 0.000000e+00  0.000000e+00 0.000000e+00 0.000000e+00  1.112686e+00 -1.098795e-01 0.000000e+00  6.562500e-01 0.000000e+00 0.000000e+00  -6.156663e-02 3.892388e-01 0.000000e+00  6.734739e-01 1.451501e-01 0.000000e+00  1.446226e+00 3.236811e-01 0.000000e+00  1.049309e+00 2.027413e-01 0.000000e+00  -3.105236e-01 4.206447e-01 0.000000e+00  1.186228e+00 -2.649309e-01 0.000000e+00  1.396741e+00 -1.336927e-01 0.000000e+00  1.406250e+00 0.000000e+00 0.000000e+00  1.423699e+00 -5.514955e-01 0.000000e+00  1.589725e+00 -4.296748e-01 0.000000e+00  1.341874e+00 -3.979549e-01 0.000000e+00  2.068791e+00 -1.333501e+00 0.000000e+00  7.071068e-01 -7.071068e-01 0.000000e+00  1.787337e+00 4.780578e-01 0.000000e+00  -4.245222e-02 5.696052e-01 0.000000e