<?xml version="1.0"?>
<VTKFile type="UnstructuredGrid"  version="0.1"  >
<UnstructuredGrid>
<Piece  NumberOfPoints="10201" NumberOfCells="20000">
<Points>
<DataArray  type="Float32"  NumberOfComponents="3"  format="ascii">0 0 0  0.01 0 0  0.02 0 0  0.03 0 0  0.04 0 0  0.05 0 0  0.06 0 0  0.07 0 0  0.08 0 0  0.09 0 0  0.1 0 0  0.11 0 0  0.12 0 0  0.13 0 0  0.14 0 0  0.15 0 0  0.16 0 0  0.17 0 0  0.18 0 0  0.19 0 0  0.2 0 0  0.21 0 0  0.22 0 0  0.23 0 0  0.24 0 0  0.25 0 0  0.26 0 0  0.27 0 0  0.28 0 0  0.29 0 0  0.3 0 0  0.31 0 0  0.32 0 0  0.33 0 0  0.34 0 0  0.35 0 0  0.36 0 0  0.37 0 0  0.38 0 0  0.39 0 0  0.4 0 0  0.41 0 0  0.42 0 0  0.43 0 0  0.44 0 0  0.45 0 0  0.46 0 0  0.47 0 0  0.48 0 0  0.49 0 0  0.5 0 0  0.51 0 0  0.52 0 0  0.53 0 0  0.54 0 0  0.55 0 0  0.56 0 0  0.57 0 0  0.58 0 0  0.59 0 0  0.6 0 0  0.61 0 0  0.62 0 0  0.63 0 0  0.64 0 0  0.65 0 0  0.66 0 0  0.67 0 0  0.68 0 0  0.69 0 0  0.7 0 0  0.71 0 0  0.72 0 0  0.73 0 0  0.74 0 0  0.75 0 0  0.76 0 0  0.77 0 0  0.78 0 0  0.79 0 0  0.8 0 0  0.81 0 0  0.82 0 0  0.83 0 0  0.84 0 0  0.85 0 0  0.86 0 0  0.87 0 0  0.88 0 0  0.89 0 0  0.9 0 0  0.91 0 0  0.92 0 0  0.93 0 0  0.94 0 0  0.95 0 0  0.96 0 0  0.97 0 0  0.98 0 0  0.99 0 0  1 0 0  0 0.01 0  0.01 0.01 0  0.02 0.01 0  0.03 0.01 0  0.04 0.01 0  0.05 0.01 0  0.06 0.01 0  0.07 0.01 0  0.08 0.01 0  0.09 0.01 0  0.1 0.01 0  0.11 0.01 0  0.12 0.01 0  0.13 0.01 0  0.14 0.01 0  0.15 0.01 0  0.16 0.01 0  0.17 0.01 0  0.18 0.01 0  0.19 0.01 0  0.2 0.01 0  0.21 0.01 0  0.22 0.01 0  0.23 0.01 0  0.24 0.01 0  0.25 0.01 0  0.26 0.01 0  0.27 0.01 0  0.28 0.01 0  0.29 0.01 0  0.3 0.01 0  0.31 0.01 0  0.32 0.01 0  0.33 0.01 0  0.34 0.01 0  0.35 0.01 0  0.36 0.01 0  0.37 0.01 0  0.38 0.01 0  0.39 0.01 0  0.4 0.01 0  0.41 0.01 0  0.42 0.01 0  0.43 0.01 0  0.44 0.01 0  0.45 0.01 0  0.46 0.01 0  0.47 0.01 0  0.48 0.01 0  0.49 0.01 0  0.5 0.01 0  0.51 0.01 0  0.52 0.01 0  0.53 0.01 0  0.54 0.01 0  0.55 0.01 0  0.56 0.01 0  0.57 0.01 0  0.58 0.01 0  0.59 0.01 0  0.6 0.01 0  0.61 0.01 0  0.62 0.01 0  0.63 0.01 0  0.64 0.01 0  0.65 0.01 0  0.66 0.01 0  0.67 0.01 0  0.68 0.01 0  0.69 0.01 0  0.7 0.01 0  0.71 0.01 0  0.72 0.01 0  0.73 0.01 0  0.74 0.01 0  0.75 0.01 0  0.76 0.01 0  0.77 0.01 0  0.78 0.01 0  0.79 0.01 0  0.8 0.01 0  0.81 0.01 0  0.82 0.01 0  0.83 0.01 0  0.84 0.01 0  0.85 0.01 0  0.86 0.01 0  0.87 0.01 0  0.88 0.01 0  0.89 0.01 0  0.9 0.01 0  0.91 0.01 0  0.92 0.01 0  0.93 0.01 0  0.94 0.01 0  0.95 0.01 0  0.96 0.01 0  0.97 0.01 0  0.98 0.01 0  0.99 0.01 0  1 0.01 0  0 0.02 0  0.01 0.02 0  0.02 0.02 0  0.03 0.02 0  0.04 0.02 0  0.05 0.02 0  0.06 0.02 0  0.07 0.02 0  0.08 0.02 0  0.09 0.02 0  0.1 0.02 0  0.11 0.02 0  0.12 0.02 0  0.13 0.02 0  0.14 0.02 0  0.15 0.02 0  0.16 0.02 0  0.17 0.02 0  0.18 0.02 0  0.19 0.02 0  0.2 0.02 0  0.21 0.02 0  0.22 0.02 0  0.23 0.02 0  0.24 0.02 0  0.25 0.02 0  0.26 0.02 0  0.27 0.02 0  0.28 0.02 0  0.29 0.02 0  0.3 0.02 0  0.31 0.02 0  0.32 0.02 0  0.33 0.02 0  0.34 0.02 0  0.35 0.02 0  0.36 0.02 0  0.37 0.02 0  0.38 0.02 0  0.39 0.02 0  0.4 0.02 0  0.41 0.02 0  0.42 0.02 0  0.43 0.02 0  0.44 0.02 0  0.45 0.02 0  0.46 0.02 0  0.47 0.02 0  0.48 0.02 0  0.49 0.02 0  0.5 0.02 0  0.51 0.02 0  0.52 0.02 0  0.53 0.02 0  0.54 0.02 0  0.55 0.02 0  0.56 0.02 0  0.57 0.02 0  0.58 0.02 0  0.59 0.02 0  0.6 0.02 0  0.61 0.02 0  0.62 0.02 0  0.63 0.02 0  0.64 0.02 0  0.65 0.02 0  0.66 0.02 0  0.67 0.02 0  0.68 0.02 0  0.69 0.02 0  0.7 0.02 0  0.71 0.02 0  0.72 0.02 0  0.73 0.02 0  0.74 0.02 0  0.75 0.02 0  0.76 0.02 0  0.77 0.02 0  0.78 0.02 0  0.79 0.02 0  0.8 0.02 0  0.81 0.02 0  0.82 0.02 0  0.83 0.02 0  0.84 0.02 0  0.85 0.02 0  0.86 0.02 0  0.87 0.02 0  0.88 0.02 0  0.89 0.02 0  0.9 0.02 0  0.91 0.02 0  0.92 0.02 0  0.93 0.02 0  0.94 0.02 0  0.95 0.02 0  0.96 0.02 0  0.97 0.02 0  0.98 0.02 0  0.99 0.02 0  1 0.02 0  0 0.03 0  0.01 0.03 0  0.02 0.03 0  0.03 0.03 0  0.04 0.03 0  0.05 0.03 0  0.06 0.03 0  0.07 0.03 0  0.08 0.03 0  0.09 0.03 0  0.1 0.03 0  0.11 0.03 0  0.12 0.03 0  0.13 0.03 0  0.14 0.03 0  0.15 0.03 0  0.16 0.03 0  0.17 0.03 0  0.18 0.03 0  0.19 0.03 0  0.2 0.03 0  0.21 0.03 0  0.22 0.03 0  0.23 0.03 0  0.24 0.03 0  0.25 0.03 0  0.26 0.03 0  0.27 0.03 0  0.28 0.03 0  0.29 0.03 0  0.3 0.03 0  0.31 0.03 0  0.32 0.03 0  0.33 0.03 0  0.34 0.03 0  0.35 0.03 0  0.36 0.03 0  0.37 0.03 0  0.38 0.03 0  0.39 0.03 0  0.4 0.03 0  0.41 0.03 0  0.42 0.03 0  0.43 0.03 0  0.44 0.03 0  0.45 0.03 0  0.46 0.03 0  0.47 0.03 0  0.48 0.03 0  0.49 0.03 0  0.5 0.03 0  0.51 0.03 0  0.52 0.03 0  0.53 0.03 0  0.54 0.03 0  0.55 0.03 0  0.56 0.03 0  0.57 0.03 0  0.58 0.03 0  0.59 0.03 0  0.6 0.03 0  0.61 0.03 0  0.62 0.03 0  0.63 0.03 0  0.64 0.03 0  0.65 0.03 0  0.66 0.03 0  0.67 0.03 0  0.68 0.03 0  0.69 0.03 0  0.7 0.03 0  0.71 0.03 0  0.72 0.03 0  0.73 0.03 0  0.74 0.03 0  0.75 0.03 0  0.76 0.03 0  0.77 0.03 0  0.78 0.03 0  0.79 0.03 0  0.8 0.03 0  0.81 0.03 0  0.82 0.03 0  0.83 0.03 0  0.84 0.03 0  0.85 0.03 0  0.86 0.03 0  0.87 0.03 0  0.88 0.03 0  0.89 0.03 0  0.9 0.03 0  0.91 0.03 0  0.92 0.03 0  0.93 0.03 0  0.94 0.03 0  0.95 0.03 0  0.96 0.03 0  0.97 0.03 0  0.98 0.03 0  0.99 0.03 0  1 0.03 0  0 0.04 0  0.01 0.04 0  0.02 0.04 0  0.03 0.04 0  0.04 0.04 0  0.05 0.04 0  0.06 0.04 0  0.07 0.04 0  0.08 0.04 0  0.09 0.04 0  0.1 0.04 0  0.11 0.04 0  0.12 0.04 0  0.13 0.04 0  0.14 0.04 0  0.15 0.04 0  0.16 0.04 0  0.17 0.04 0  0.18 0.04 0  0.19 0.04 0  0.2 0.04 0  0.21 0.04 0  0.22 0.04 0  0.23 0.04 0  0.24 0.04 0  0.25 0.04 0  0.26 0.04 0  0.27 0.04 0  0.28 0.04 0  0.29 0.04 0  0.3 0.04 0  0.31 0.04 0  0.32 0.04 0  0.33 0.04 0  0.34 0.04 0  0.35 0.04 0  0.36 0.04 0  0.37 0.04 0  0.38 0.04 0  0.39 0.04 0  0.4 0.04 0  0.41 0.04 0  0.42 0.04 0  0.43 0.04 0  0.44 0.04 0  0.45 0.04 0  0.46 0.04 0  0.47 0.04 0  0.48 0.04 0  0.49 0.04 0  0.5 0.04 0  0.51 0.04 0  0.52 0.04 0  0.53 0.04 0  0.54 0.04 0  0.55 0.04 0  0.56 0.04 0  0.57 0.04 0  0.58 0.04 0  0.59 0.04 0  0.6 0.04 0  0.61 0.04 0  0.62 0.04 0  0.63 0.04 0  0.64 0.04 0  0.65 0.04 0  0.66 0.04 0  0.67 0.04 0  0.68 0.04 0  0.69 0.04 0  0.7 0.04 0  0.71 0.04 0  0.72 0.04 0  0.73 0.04 0  0.74 0.04 0  0.75 0.04 0  0.76 0.04 0  0.77 0.04 0  0.78 0.04 0  0.79 0.04 0  0.8 0.04 0  0.81 0.04 0  0.82 0.04 0  0.83 0.04 0  0.84 0.04 0  0.85 0.04 0  0.86 0.04 0  0.87 0.04 0  0.88 0.04 0  0.89 0.04 0  0.9 0.04 0  0.91 0.04 0  0.92 0.04 0  0.93 0.04 0  0.94 0.04 0  0.95 0.04 0  0.96 0.04 0  0.97 0.04 0  0.98 0.04 0  0.99 0.04 0  1 0.04 0  0 0.05 0  0.01 0.05 0  0.02 0.05 0  0.03 0.05 0  0.04 0.05 0  0.05 0.05 0  0.06 0.05 0  0.07 0.05 0  0.08 0.05 0  0.09 0.05 0  0.1 0.05 0  0.11 0.05 0  0.12 0.05 0  0.13 0.05 0  0.14 0.05 0  0.15 0.05 0  0.16 0.05 0  0.17 0.05 0  0.18 0.05 0  0.19 0.05 0  0.2 0.05 0  0.21 0.05 0  0.22 0.05 0  0.23 0.05 0  0.24 0.05 0  0.25 0.05 0  0.26 0.05 0  0.27 0.05 0  0.28 0.05 0  0.29 0.05 0  0.3 0.05 0  0.31 0.05 0  0.32 0.05 0  0.33 0.05 0  0.34 0.05 0  0.35 0.05 0  0.36 0.05 0  0.37 0.05 0  0.38 0.05 0  0.39 0.05 0  0.4 0.05 0  0.41 0.05 0  0.42 0.05 0  0.43 0.05 0  0.44 0.05 0  0.45 0.05 0  0.46 0.05 0  0.47 0.05 0  0.48 0.05 0  0.49 0.05 0  0.5 0.05 0  0.51 0.05 0  0.52 0.05 0  0.53 0.05 0  0.54 0.05 0  0.55 0.05 0  0.56 0.05 0  0.57 0.05 0  0.58 0.05 0  0.59 0.05 0  0.6 0.05 0  0.61 0.05 0  0.62 0.05 0  0.63 0.05 0  0.64 0.05 0  0.65 0.05 0  0.66 0.05 0  0.67 0.05 0  0.68 0.05 0  0.69 0.05 0  0.7 0.05 0  0.71 0.05 0  0.72 0.05 0  0.73 0.05 0  0.74 0.05 0  0.75 0.05 0  0.76 0.05 0  0.77 0.05 0  0.78 0.05 0  0.79 0.05 0  0.8 0.05 0  0.81 0.05 0  0.82 0.05 0  0.83 0.05 0  0.84 0.05 0  0.85 0.05 0  0.86 0.05 0  0.87 0.05 0  0.88 0.05 0  0.89 0.05 0  0.9 0.05 0  0.91 0.05 0  0.92 0.05 0  0.93 0.05 0  0.94 0.05 0  0.95 0.05 0  0.96 0.05 0  0.97 0.05 0  0.98 0.05 0  0.99 0.05 0  1 0.05 0  0 0.06 0  0.01 0.06 0  0.02 0.06 0  0.03 0.06 0  0.04 0.06 0  0.05 0.06 0  0.06 0.06 0  0.07 0.06 0  0.08 0.06 0  0.09 0.06 0  0.1 0.06 0  0.11 0.06 0  0.12 0.06 0  0.13 0.06 0  0.14 0.06 0  0.15 0.06 0  0.16 0.06 0  0.17 0.06 0  0.18 0.06 0  0.19 0.06 0  0.2 0.06 0  0.21 0.06 0  0.22 0.06 0  0.23 0.06 0  0.24 0.06 0  0.25 0.06 0  0.26 0.06 0  0.27 0.06 0  0.28 0.06 0  0.29 0.06 0  0.3 0.06 0  0.31 0.06 0  0.32 0.06 0  0.33 0.06 0  0.34 0.06 0  0.35 0.06 0  0.36 0.06 0  0.37 0.06 0  0.38 0.06 0  0.39 0.06 0  0.4 0.06 0  0.41 0.06 0  0.42 0.06 0  0.43 0.06 0  0.44 0.06 0  0.45 0.06 0  0.46 0.06 0  0.47 0.06 0  0.48 0.06 0  0.49 0.06 0  0.5 0.06 0  0.51 0.06 0  0.52 0.06 0  0.53 0.06 0  0.54 0.06 0  0.55 0.06 0  0.56 0.06 0  0.57 0.06 0  0.58 0.06 0  0.59 0.06 0  0.6 0.06 0  0.61 0.06 0  0.62 0.06 0  0.63 0.06 0  0.64 0.06 0  0.65 0.06 0  0.66 0.06 0  0.67 0.06 0  0.68 0.06 0  0.69 0.06 0  0.7 0.06 0  0.71 0.06 0  0.72 0.06 0  0.73 0.06 0  0.74 0.06 0  0.75 0.06 0  0.76 0.06 0  0.77 0.06 0  0.78 0.06 0  0.79 0.06 0  0.8 0.06 0  0.81 0.06 0  0.82 0.06 0  0.83 0.06 0  0.84 0.06 0  0.85 0.06 0  0.86 0.06 0  0.87 0.06 0  0.88 0.06 0  0.89 0.06 0  0.9 0.06 0  0.91 0.06 0  0.92 0.06 0  0.93 0.06 0  0.94 0.06 0  0.95 0.06 0  0.96 0.06 0  0.97 0.06 0  0.98 0.06 0  0.99 0.06 0  1 0.06 0  0 0.07 0  0.01 0.07 0  0.02 0.07 0  0.03 0.07 0  0.04 0.07 0  0.05 0.07 0  0.06 0.07 0  0.07 0.07 0  0.08 0.07 0  0.09 0.07 0  0.1 0.07 0  0.11 0.07 0  0.12 0.07 0  0.13 0.07 0  0.14 0.07 0  0.15 0.07 0  0.16 0.07 0  0.17 0.07 0  0.18 0.07 0  0.19 0.07 0  0.2 0.07 0  0.21 0.07 0  0.22 0.07 0  0.23 0.07 0  0.24 0.07 0  0.25 0.07 0  0.26 0.07 0  0.27 0.07 0  0.28 0.07 0  0.29 0.07 0  0.3 0.07 0  0.31 0.07 0  0.32 0.07 0  0.33 0.07 0  0.34 0.07 0  0.35 0.07 0  0.36 0.07 0  0.37 0.07 0  0.38 0.07 0  0.39 0.07 0  0.4 0.07 0  0.41 0.07 0  0.42 0.07 0  0.43 0.07 0  0.44 0.07 0  0.45 0.07 0  0.46 0.07 0  0.47 0.07 0  0.48 0.07 0  0.49 0.07 0  0.5 0.07 0  0.51 0.07 0  0.52 0.07 0  0.53 0.07 0  0.54 0.07 0  0.55 0.07 0  0.56 0.07 0  0.57 0.07 0  0.58 0.07 0  0.59 0.07 0  0.6 0.07 0  0.61 0.07 0  0.62 0.07 0  0.63 0.07 0  0.64 0.07 0  0.65 0.07 0  0.66 0.07 0  0.67 0.07 0  0.68 0.07 0  0.69 0.07 0  0.7 0.07 0  0.71 0.07 0  0.72 0.07 0  0.73 0.07 0  0.74 0.07 0  0.75 0.07 0  0.76 0.07 0  0.77
[...]
<PointData  Vectors="u"> 
<DataArray  type="Float32"  Name="u"  NumberOfComponents="3" format="ascii">0.000000e+00 0.000000e+00 0.000000e+00  0.000000e+00 0.000000e+00 0.000000e+00  0.000000e+00 0.000000e+00 0.000000e+00  0.000000e+00 0.000000e+00 0.000000e+00  0.000000e+00 0.000000e+00 0.000000e+00  0.000000e+00 0.000000e+00 0.000000e+00  0.000000e+00 0.000000e+00 0.000000e+00  0.000000e+00 0.000000e+00 0.000000e+00  0.000000e+00 0.000000e+00 0.000000e+00  0.000000e+00 0.000000e+00 0.000000e+00  0.000000e+00 0.000000e+00 0.000000e+00  0.000000e+00 0.000000e+00 0.000000e+00  0.000000e+00 0.000000e+00 0.000000e+00  0.000000e+00 0.000000e+00 0.000000e+00  0.000000e+00 0.000000e+00 0.000000e+00  0.000000e+00 0.000000e+00 0.000000e+00  0.000000e+00 0.000000e+00 0.000000e+00  0.000000e+00 0.000000e+00 0.000000e+00  0.000000e+00 0.000000e+00 0.000000e+00  0.000000e+00 0.000000e+00 0.000000e+00  0.000000e+00 0.000000e+00 0.000000e+00  0.000000e+00 0.000000e+00 0.000000e+00  0.000000e+00 0.000000e+00 0.000000e+00  0.000000e+00 0.000000e+00 0.000000e+00  0.000000e+00 0.000000e+00 0.000000e+00  0.000000e+00 0.000000e+00 0.000000e+00  0.000000e+00 0.000000e+00 0.000000e+00  0.000000e+00 0.000000e+00 0.000000e+00  0.000000e+00 0.000000e+00 0.000000e+00  0.000000e+00 0.000000e+00 0.000000e+00  0.000000e+00 0.000000e+00 0.000000e+00  0.000000e+00 0.000000e+00 0.000000e+00  0.000000e+00 0.000000e+00 0.000000e+00  0.000000e+00 0.000000e+00 0.000000e+00  0.000000e+00 0.000000e+00 0.000000e+00  0.000000e+00 0.000000e+00 0.000000e+00  0.000000e+00 0.000000e+00 0.000000e+00  0.000000e+00 0.000000e+00 0.000000e+00  0.000000e+00 0.000000e+00 0.000000e+00  0.000000e+00 0.000000e+00 0.000000e+00  0.000000e+00 0.000000e+00 0.000000e+00  0.000000e+00 0.000000e+00 0.000000e+00  0.000000e+00 0.000000e+00 0.000000e+00  0.000000e+00 0.000000e+00 0.000000e+00  0.000000e+00 0.000000e+00 0.000000e+00  0.000000e+00 0.000000e+00 0.000000e+00  0.000000e+00 0.000000e+00 0.000000e+00  0.000000e+00 0.000000e+00 0.000000e+00  0.000000e+00 0.000000e+00 0.000000e+00  0.000000e+00 0.000000e+00 0.000000e+00  0.000000e+00 0.000000e+00 0.000000e+00  0.000000e+00 0.000000e+00 0.000000e+00  0.000000e+00 0.000000e+00 0.000000e+00  0.000000e+00 0.000000e+00 0.000000e+00  0.000000e+00 0.000000e+00 0.000000e+00  0.000000e+00 0.000000e+00 0.000000e+00  0.000000e+00 0.000000e+00 0.000000e+00  0.000000e+00 0.000000e+00 0.000000e+00  0.000000e+00 0.000000e+00 0.000000e+00  0.000000e+00 0.000000e+00 0.000000e+00  0.000000e+00 0.000000e+00 0.000000e+00  0.000000e+00 0.000000e+00 0.000000e+00  0.000000e+00 0.000000e+00 0.000000e+00  0.000000e+00 0.000000e+00 0.000000e+00  0.000000e+00 0.000000e+00 0.000000e+00  0.000000e+00 0.000000e+00 0.000000e+00  0.000000e+00 0.000000e+00 0.000000e+00  0.000000e+00 0.000000e+00 0.000000e+00  0.000000e+00 0.000000e+00 0.000000e+00  0.000000e+00 0.000000e+00 0.000000e+00  0.000000e+00 0.000000e+00 0.000000e+00  0.000000e+00 0.000000e+00 0.000000e+00  0.000000e+00 0.000000e+00 0.000000e+00  0.000000e+00 0.000000e+00 0.000000e+00  0.000000e+00 0.000000e+00 0.000000e+00  0.000000e+00 0.000000e+00 0.000000e+00  0.000000e+00 0.000000e+00 0.000000e+00  0.000000e+00 0.000000e+00 0.000000e+00  0.000000e+00 0.000000e+00 0.000000e+00  0.000000e+00 0.000000e+00 0.000000e+00  0.000000e+00 0.000000e+00 0.000000e+00  0.000000e+00 0.000000e+00 0.000000e+00  0.000000e+00 0.000000e+00 0.000000e+00  0.000000e+00 0.000000e+00 0.000000e+00  0.000000e+00 0.000000e+00 0.000000e+00  0.000000e+00 0.000000e+00 0.000000e+00  0.000000e+00 0.000000e+00 0.000000e+00  0.000000e+00 0.000000e+00 0.000000e+00  0.000000e+00 0.000000e+00 0.000000e+00  0.000000e+00 0.000000e+00 0.000000e+00  0.000000e+00 0.000000e+00 0.000000e+00  0.000000e+00 0.000000e+00 0.000000e+00  0.000000e+00 0.000000e+00 0.000000e+00  0.000000e+00 0.000000e+00 0.000000e+00  0.000000e+00 0.000000e+00 0.000000e+00  0.000000e+00 0.000000e+00 0.000000e+00  0.000000e+00 0.000000e+00 0.000000e+00  0.000000e+00 0.000000e+00 0.000000e+00  0.000000e+00 0.000000e+00 0.000000e+00  0.000000e+00 0.000000e+00 0.000000e+00  0.000000e+00 0.000000e+00 0.000000e+00  9.900000e-03 0.000000e+00 0.000000e+00  9.900000e-03 0.000000e+00 0.000000e+00  9.900000e-03 0.000000e+00 0.000000e+00  9.900000e-03 4.104907e-16 0.000000e+00  9.900000e-03 5.108750e-16 0.000000e+00  9.900000e-03 5.785568e-16 0.000000e+00  9.900000e-03 6.268138e-16 0.000000e+00  9.900000e-03 6.462395e-16 0.000000e+00  9.900000e-03 6.441392e-16 0.000000e+00  9.900000e-03 6.358556e-16 0.000000e+00  9.900000e-03 6.180517e-16 0.000000e+00  9.900000e-03 5.906370e-16 0.000000e+00  9.900000e-03 5.522578e-16 0.000000e+00  9.900000e-03 5.249861e-16 0.000000e+00  9.900000e-03 4.920760e-16 0.000000e+00  9.900000e-03 4.496207e-16 0.000000e+00  9.900000e-03 4.117322e-16 0.000000e+00  9.900000e-03 3.737407e-16 0.000000e+00  9.900000e-03 3.353575e-16 0.000000e+00  9.900000e-03 3.021104e-16 0.000000e+00  9.900000e-03 0.000000e+00 0.000000e+00  9.900000e-03 0.000000e+00 0.000000e+00  9.900000e-03 0.000000e+00 0.000000e+00  9.900000e-03 0.000000e+00 0.000000e+00  9.900000e-03 0.000000e+00 0.000000e+00  9.900000e-03 0.000000e+00 0.000000e+00  9.900000e-03 0.000000e+00 0.000000e+00  9.900000e-03 0.000000e+00 0.000000e+00  9.900000e-03 0.000000e+00 0.000000e+00  9.900000e-03 0.000000e+00 0.000000e+00  9.900000e-03 0.000000e+00 0.000000e+00  9.900000e-03 0.000000e+00 0.000000e+00  9.900000e-03 0.000000e+00 0.000000e+00  9.900000e-03 0.000000e+00 0.000000e+00  9.900000e-03 0.000000e+00 0.000000e+00  9.900000e-03 0.000000e+00 0.000000e+00  9.900000e-03 0.000000e+00 0.000000e+00  9.900000e-03 0.000000e+00 0.000000e+00  9.900000e-03 0.000000e+00 0.000000e+00  9.900000e-03 0.000000e+00 0.000000e+00  9.900000e-03 0.000000e+00 0.000000e+00  9.900000e-03 0.000000e+00 0.000000e+00  9.900000e-03 0.000000e+00 0.000000e+00  9.900000e-03 0.000000e+00 0.000000e+00  9.900000e-03 0.000000e+00 0.000000e+00  9.900000e-03 0.000000e+00 0.000000e+00  9.900000e-03 0.000000e+00 0.000000e+00  9.900000e-03 0.000000e+00 0.000000e+00  9.900000e-03 0.000000e+00 0.000000e+00  9.900000e-03 0.000000e+00 0.000000e+00  9.900000e-03 0.000000e+00 0.000000e+00  9.900000e-03 0.000000e+00 0.000000e+00  9.900000e-03 0.000000e+00 0.000000e+00  9.900000e-03 0.000000e+00 0.000000e+00  9.900000e-03 0.000000e+00 0.000000e+00  9.900000e-03 0.000000e+00 0.000000e+00  9.900000e-03 0.000000e+00 0.000000e+00  9.900000e-03 0.000000e+00 0.000000e+00  9.900000e-03 0.000000e+00 0.000000e+00  9.900000e-03 0.000000e+00 0.000000e+00  9.900000e-03 0.000000e+00 0.000000e+00  9.900000e-03 0.000000e+00 0.000000e+00  9.900000e-03 0.000000e+00 0.000000e+00  9.900000e-03 0.000000e+00 0.000000e+00  9.900000e-03 0.000000e+00 0.000000e+00  9.900000e-03 0.000000e+00 0.000000e+00  9.900000e-03 0.000000e+00 0.000000e+00  9.900000e-03 0.000000e+00 0.000000e+00  9.900000e-03 0.000000e+00 0.000000e+00  9.900000e-03 0.000000e+00 0.000000e+00  9.900000e-03 0.000000e+00 0.000000e+00  9.900000e-03 0.000000e+00 0.000000e+00  9.900000e-03 0.000000e+00 0.000000e+00  9.900000e-03 0.000000e+00 0.000000e+00  9.900000e-03 0.000000e+00 0.000000e+00  9.900000e-03 0.000000e+00 0.000000e+00  9.900000e-03 0.000000e+00 0.000000e+00  9.900000e-03 0.000000e+00 0.000000e+00  9.900000e-03 0.000000e+00 0.000000e+00  9.900000e-03 0.000000e+00 0.000000e+00  9.900000e-03 0.000000e+00 0.000000e+00  9.900000e-03 0.000000e+00 0.000000e+00  9.900000e-03 0.000000e+00 0.000000e+00  9.900000e-03 0.000000e+00 0.000000e+00  9.900000e-03 0.000000e+00 0.000000e+00  9.900000e-03 0.000000e+00 0.000000e+00  9.900000e-03 0.000000e+00 0.000000e+00  9.900000e-03 0.000000e+00 0.000000e+00  9.900000e-03 0.000000e+00 0.000000e+00  9.900000e-03 0.000000e+00 0.000000e+00  9.900000e-03 0.000000e+00 0.000000e+00  9.900000e-03 0.000000e+00 0.000000e+00  9.900000e-03 0.000000e+00 0.000000e+00  9.900000e-03 0.000000e+00 0.000000e+00  9.900000e-03 0.000000e+00 0.000000e+00  9.900000e-03 0.000000e+00 0.000000e+00  9.900000e-03 0.000000e+00 0.000000e+00  9.900000e-03 0.000000e+00 0.000000e+00  9.900000e-03 0.000000e+00 0.000000e+00  9.900000e-03 0.000000e+00 0.000000e+00  9.900000e-03 0.000000e+00 0.000000e+00  1.960000e-02 0.000000e+00 0.000000e+00  1.960000e-02 5.086668e-16 0.000000e+00  1.960000e-02 1.058356e-15 0.000000e+00  1.960000e-02 1.525769e-15 0.000000e+00  1.960000e-02 1.886088e-15 0.000000e+00  1.960000e-02 2.144004e-15 0.000000e+00  1.960000e-02 2.314639e-15 0.000000e+00  1.960000e-02 2.411447e-15 0.000000e+00  1.960000e-02 2.446555e-15 0.000000e+00  1.960000e-02 2.412734e-15 0.000000e+00  1.960000e-02 2.341117e-15 0.000000e+00  1.960000e-02 2.249092e-15 0.000000e+00  1.960000e-02 2.131251e-15 0.000000e+00  1.960000e-02 1.989297e-15 0.000000e+00  1.960000e-02 1.889019e-15 0.000000e+00  1.960000e-02 1.749720e-15 0.000000e+00  1.960000e-02 1.586189e-15 0.000000e+00  1.960000e-02 1.434865e-15 0.000000e+00  1.960000e-02 1.296219e-15 0.000000e+00  1.960000e-02 1.172384e-15 0.000000e+00  1.960000e-02 1.056860e-15 0.000000e+00  1.960000e-02 9.570275e-16 0.000000e+00  1.960000e-02 8.902486e-16 0.000000e+00  1.960000e-02 8.248583e-16 0.000000e+00  1.960000e-02 7.583795e-16 0.000000e+00  1.960000e-02 6.916060e-16 0.000000e+00  1.960000e-02 6.564713e-16 0.000000e+00  1.960000e-02 6.467647e-16 0.000000e+00  1.960000e-02 6.477976e-16 0.000000e+00  1.960000e-02 6.519175e-16 0.000000e+00  1.960000e-02 6.490532e-16 0.000000e+00  1.960000e-02 6.353118e-16 0.000000e+00  1.960000e-02 6.352070e-16 0.000000e+00  1.960000e-02 6.448067e-16 0.000000e+00  1.960000e-02 6.954896e-16 0.000000e+00  1.960000e-02 6.921675e-16 0.000000e+00  1.960000e-02 6.612958e-16 0.000000e+00  1.960000e-02 6.391134e-16 0.000000e+00  1.960000e-02 6.194325e-16 0.000000e+00  1.960000e-02 6.013563e-16 0.000000e+00  1.960000e-02 5.847117e-16 0.000000e+00  1.960000e-02 5.644219e-16 0.000000e+00  1.960000e-02 5.384875e-16 0.000000e+00  1.960000e-02 5.019658e-16 0.000000e+00  1.960000e-02 4.727709e-16 0.000000e+00  1.960000e-02 4.578890e-16 0.000000e+00  1.960000e-02 4.400624e-16 0.000000e+00  1.960000e-02 4.298457e-16 0.000000e+00  1.960000e-02 4.292729e-16 0.000000e+00  1.960000e-02 4.303367e-16 0.000000e+00  1.960000e-02 4.243161e-16 0.000000e+00  1.960000e-02 4.060393e-16 0.000000e+00  1.960000e-02 3.847707e-16 0.000000e+00  1.960000e-02 3.514047e-16 0.000000e+00  1.960000e-02 3.280083e-16 0.000000e+00  1.960000e-02 0.000000e+00 0.000000e+00  1.960000e-02 0.000000e+00 0.000000e+00  1.960000e-02 0.000000e+00 0.000000e+00  1.960000e-02 0.000000e+00 0.000000e+00  1.960000e-02 0.000000e+00 0.000000e+00  1.960000e-02 0.000000e+00 0.000000e+00  1.960000e-02 0.000000e+00 0.000000e+00  1.960000e-02 0.000000e+00 0.000000e+00  1.960000e-02 0.000000e+00 0.000000e+00  1.960000e-02 0.000000e+00 0.000000e+00  1.960000e-02 0.000000e+00 0.000000e+00  1.960000e-02 0.000000e+00 0.000000e+00  1.960000e-02 0.000000e+00 0.000000e+00  1.960000e-02 0.000000e+00 0.000000e+00  1.960000e-02 0.000000e+00 0.000000e+00  1.960000e-02 0.000000e+00 0.000000e+00  1.960000e-02 0.000000e+00 0.000000e+00  1.960000e-02 0.000000e+00 0.000000e+00  1.960000e-02 0.000000e+00 0.000000e+00  1.960000e-02 0.000000e+00 0.000000e+00  1.960000e-02 0.000000e+00 0.000000e+00  1.960000e-02 0.000000e+00 0.000000e+00  1.960000e-02 0.000000e+00 0.000000e+00  1.960000e-02 0.000000e+00 0.000000e+00  1.960000e-02 0.000000e+00 0.000000e+00  1.960000e-02 0.000000e+00 0.000000e+00  1.960000e-02 0.000000e+00 0.000000e+00  1.960000e-02 0.000000e+00 0.000000e+00  1.960000e-02 0.000000e+00 0.000000e+00  1.960000e-02 0.000000e+00 0.000000e+00  1.960000e-02 0.000000e+00 0.000000e+00  1.960000e-02 0.000000e+00 0.000000e+00  1.960000e-02 0.000000e+00 0.000000e+00  1.960000e-02 0.000000e+00 0.000000e+00  1.960000e-02 0.000000e+00 0.000000e+00  1.960000e-02 0.000000e+00 0.000000e+00  1.960000e-02 0.000000e+00 0.000000e+00  1.960000e-02 0.000000e+00 0.000000e+00  1.960000e-02 0.000000e+00 0.000000e+00  1.960000e-02 0.000000e+00 0.000000e+00  1.960000e-02 0.000000e+00 0.000000e+00  1.960000e-02 0.000000e+00 0.000000e+00  1.960000e-02 0.000000e+00 0.000000e+00  1.960000e-02 0.000000e+00 0.000000e+00  1.960000e-02 0.000000e+00 0.000000e+00  1.960000e-02 0.000000e+00 0.000000e+00  2.910000e-02 0.000000e+00 0.000000e+00  2.910000e-02 1.171328e-15 0.000000e+00  2.910000e-02 2.282819e-15 0.000000e+00  2.910000e-02 3.209851e-15 0.000000e+00  2.910000e-02 3.939811e-15 0.000000e+00  2.910000e-02 4.483194e-15 0.000000e+00  2.910000e-02 4.846088e-15 0.000000e+00  2.910000e-02 5.062391e-15 0.000000e+00  2.910000e-02 5.157325e-15 0.000000e+00  2.910000e-02 5.128609e-15 0.000000e+00  2.910000e-02 5.011197e-15 0.000000e+00  2.910000e-02 4.837048e-15 0.000000e+00  2.910000e-02 4.614035e-15 0.000000e+00  2.910000e-02 4.365667e-15 0.000000e+00  2.910000e-02 4.064173e-15 0.000000e+00  2.910000e-02 3.745907e-15 0.000000e+00  2.910000e-02 3.413234e-15 0.000000e+00  2.910000e-02 3.090333e-15 0.000000e+00  2.910000e-02 2.797243e-15 0.000000e+00  2.910000e-02 2.533795e-15 0.000000e+00  2.910000e-02 2.304229e-15 0.000000e+00  2.910000e-02 2.092877e-15 0.000000e+00  2.910000e-02 1.925262e-15 0.000000e+00  2.910000e-02 1.786725e-15 0.000000e+00  2.910000e-02 1.657553e-15 0.000000e+00  2.910000e-02 1.539036e-15 0.000000e+00  2.910000e-02 1.476576e-15 0.000000e+00  2.910000e-02 1.441206e-15 0.000000e+00  2.910000e-02 1.436449e-15 0.000000e+00  2.910000e-02 1.446046e-15 0.000000e+00  2.910000e-02 1.456618e-15 0.000000e+00  2.910000e-02 1.441998e-15 0.000000e+00  2.910000e-02 1.434704e-15 0.000000e+00  2.910000e-02 1.432482e-15 0.000000e+00  2.910000e-02 1.459293e-15 0.000000e+00  2.910000e-02 1.463256e-15 0.000000e+00  2.910000e-02 1.428569e-15 0.000000e+00  2.910000e-02 1.383250e-15 0.000000e+00  2.910000e-02 1.348819e-15 0.000000e+00  2.910000e-02 1.311334e-15 0.000000e+00  2.910000e-02 1.279016e-15 0.000000e+00  2.910000e-02 1.235452e-15 0.000000e+00  2.910000e-02 1.163847e-15 0.000000e+00  2.910000e-02 1.103226e-15 0.000000e+00  2.910000e-02 1.058814e-15 0.000000e+00  2.910000e-02 1.015991e-15 0.000000e+00  2.910000e-02 9.800852e-16 0.000000e+00  2.910000e-02 9.516920e-16 0.000000e+00  2.910000e-02 9.377363e-16 0.000000e+00  2.910000e-02 9.301340e-16 0.000000e+00  2.910000e-02 9.057810e-16 0.000000e+00  2.910000e-02 8.721262e-16 0.000000e+00  2.910000e-02 8.279866e-16 0.000000e+00  2.910000e-02 7.664280e-16 0.000000e+00  2.910000e-02 7.130528e-16 0.000000e+00  2.910000e-02 6.599227e-16 0.000000e+00  2.910000e-02 6.192274e-16 0.000000e+00  2.910000e-02 5.687207e-16 0.000000e+00  2.910000e-02 5.219220e-16 0.000000e+00  2.910000e-02 4.841563e-16 0.000000e+00  2.910000e-02 4.616266e-16 0.000000e+00  2.910000e-02 4.574165e-16 0.000000e+00  2.910000e-02 4.480801e-16 0.000000e+00  2.910000e-02 4.157520e-16 0.000000e+00  2.910000e-02 4.406234e-16 0.000000e+00  2.910000e-02 4.815080e-16 0.000000e+00  2.910000e-02 4.565730e-16 0.000000e+00  2.910000e-02 4.190673e-16 0.000000e+00  2.910000e-02 3.966036e-16 0.000000e+00  2.910000e-02 3.813596e-16 0.000000e+00  2.910000e-02 3.633972e-16 0.000000e+00  2.910000e-02 3.343896e-16 0.000000e+00  2.910000e-02 3.059092e-16 0.000000e+00  2.910000e-02 0.000000e+00 0.000000e+00  2.910000e-02 0.000000e+00 0.000000e+00  2.910000e-02 0.000000e+00 0.000000e+00  2.910000e-02 3.085346e-16 0.000000e+00  2.910000e-02 3.172727e-16 0.000000e+00  2.910000e-02 3.208872e-16 0.000000e+00  2.910000e-02 3.158339e-16 0.000000e+00  2.910000e-02 0.000000e+00 0.000000e+00  2.910000e-02 0.000000e+00 0.000000e+00  2.910000e-02 0.000000e+00 0.000000e+00  2.910000e-02 0.000000e+00 0.000000e+00  2.910000e-02 0.000000e+00 0.000000e+00  2.910000e-02 0.000000e+00 0.000000e+00  2.910000e-02 0.000000e+00 0.000000e+00  2.910000e-02 0.000000e+00 0.000000e+00  2.910000e-02 0.000000e+00 0.000000e+00  2.910000e-02 0.000000e+00 0.000000e+00  2.910000e-02 0.000000e+00 0.000000e+00  2.910000e-02 0.000000e+00 0.000000e+00  2.910000e-02 0.000000e+00 0.000000e+00  2.910000e-02 0.000000e+00 0.000000e+00  2.910000e-02 0.000000e+00 0.000000e+00  2.910000e-02 0.000000e+00 0.000000e+00  2.910000e-02 0.000000e+00 0.000000e+00  2.910000e-02 0.000000e+00 0.000000e+00  2.910000e-02 3.221539e-16 0.000000e+00  2.910000e-02 3.517644e-16 0.000000e+00  2.910000e-02 3.714204e-16 0.000000e+00  3.840000e-02 0.000000e+00 0.000000e+00  3.840000e-02 2.062007e-15 0.000000e+00  3.840000e-02 3.853999e-15 0.000000e+00  3.840000e-02 5.365965e-15 0.000000e+00  3.840000e-02 6.545894e-15 0.000000e+00  3.840000e-02 7.430738e-15 0.000000e+00  3.840000e-02 8.054837e-15 0.000000e+00  3.840000e-02 8.422552e-15 0.000000e+00  3.840000e-02 8.582489e-15 0.000000e+00  3.840000e-02 8.587405e-15 0.000000e+00  3.840000e-02 8.449207e-15 0.000000e+00  3.840000e-02 8.172398e-15 0.000000e+00  3.840000e-02 7.774912e-15 0.000000e+00  3.840000e-02 7.301062e-15 0.000000e+00  3.840000e-02 6.838295e-15 0.000000e+00  3.840000e-02 6.317660e-15 0.000000e+00  3.840000e-02 5.785887e-15 0.000000e+00  3.840000e-02 5.256159e-15 0.000000e+00  3.840000e-02 4.779492e-15 0.000000e+00  3.840000e-02 4.342332e-15 0.000000e+00  3.840000e-02 3.957573e-15 0.000000e+00  3.840000e-02 3.599246e-15 0.000000e+00  3.840000e-02 3.283529e-15 0.000000e+00  3.840000e-02 3.038809e-15 0.000000e+00  3.840000e-02 2.846997e-15 0.000000e+00  3.840000e-02 2.694695e-15 0.000000e+00  3.840000e-02 2.595300e-15 0.000000e+00  3.840000e-02 2.542142e-15 0.000000e+00  3.840000e-02 2.530355e-15 0.000000e+00  3.840000e-02 2.541496e-15 0.000000e+00  3.840000e-02 2.550165e-15 0.000000e+00  3.840000e-02 2.536707e-15 0.000000e+00  3.840000e-02 2.515687e-15 0.000000e+00  3.840000e-02 2.498457e-15 0.000000e+00  3.840000e-02 2.494526e-15 0.000000e+00  3.840000e-02 2.464908e-15 0.000000e+00  3.840000e-02 2.415267e-15 0.000000e+00  3.840000e-02 2.357708e-15 0.000000e+00  3.840000e-02 2.321375e-15 0.000000e+00  3.840000e-02 2.270837e-15 0.000000e+00  3.840000e-02 2.214212e-15 0.000000e+00  3.840000e-02 2.136106e-15 0.000000e+00  3.840000e-02 2.030638e-15 0.000000e+00  3.840000e-02 1.917021e-15 0.000000e+00  3.840000e-02 1.842010e-15 0.000000e+00  3.840000e-02 1.776250e-15 0.000000e+00  3.840000e-02 1.710262e-15 0.000000e+00  3.840000e-02 1.648736e-15 0.000000e+00  3.840000e-02 1.622680e-15 0.000000e+00  3.840000e-02 1.595694e-15 0.000000e+00  3.840000e-02 1.547405e-15 0.000000e+00  3.840000e-02 1.492385e-15 0.000000e+00  3.840000e-02 1.446346e-15 0.000000e+00  3.840000e-02 1.353594e-15 0.000000e+00  3.840000e-02 1.245193e-15 0.000000e+00  3.840000e-02 1.146968e-15 0.000000e+00  3.840000e-02 1.077680e-15 0.000000e+00  3.840000e-02 1.005445e-15 0.000000e+00  3.840000e-02 9.452554e-16 0.000000e+00  3.840000e-02 8.934013e-16 0.000000e+00  3.840000e-02 8.329475e-16 0.000000e+00  3.840000e-02 8.071366e-16 0.000000e+00  3.840000e-02 8.082686e-16 0.000000e+00  3.840000e-02 7.980629e-16 0.000000e+00  3.840000e-02 7.933253e-16 0.000000e+00  3.840000e-02 7.856543e-16 0.000000e+00  3.840000e-02 7.523844e-16 0.000000e+00  3.840000e-02 6.943171e-16 0.000000e+00  3.840000e-02 6.736273e-16 0.000000e+00  3.840000e-02 6.676901e-16 0.000000e+00  3.840000e-02 6.472390e-16 0.000000e+00  3.840000e-02 6.064561e-16 0.000000e+00  3.840000e-02 5.682139e-16 0.000000e+00  3.840000e-02 5.568275e-16 0.000000e+00  3.840000e-02 5.219684e-16 0.000000e+00  3.840000e-02 4.919113e-16 0.000000e+00  3.840000e-02 4.917183e-16 0.000000e+00  3.840000e-02 5.060960e-16 0.000000e+00  3.840000e-02 5.016846e-16 0.000000e+00  3.840000e-02 4.890847e-16 0.000000e+00  3.840000e-02 4.710838e-16 0.000000e+00  3.840000e-02 4.556430e-16 0.000000e+00  3.840000e-02 4.133915e-16 0.000000e+00  3.840000e-02 3.453777e-16 0.000000e+00  3.840000e-02 0.000000e+00 0.000000e+00  3.840000e-02 0.000000e+00 0.000000e+00  3.840000e-02 0.000000e+00 0.000000e+00  3.840000e-02 0.000000e+00 0.000000e+00  3.840000e-02 0.000000e+00 0.000000e+00  3.840000e-02 3.039024e-16 0.000000e+00  3.840000e-02 3.521899e-16 0.000000e+00  3.840000e-02 3.746808e-16 0.000000e+00  3.840000e-02 3.763914e-16 0.000000e+00  3.840000e-02 3.846