<?xml version="1.0"?>
<VTKFile type="UnstructuredGrid"  version="0.1"  >
<UnstructuredGrid>
<Piece  NumberOfPoints="10201" NumberOfCells="20000">
<Points>
<DataArray  type="Float32"  NumberOfComponents="3"  format="ascii">0 0 0  0.01 0 0  0.02 0 0  0.03 0 0  0.04 0 0  0.05 0 0  0.06 0 0  0.07 0 0  0.08 0 0  0.09 0 0  0.1 0 0  0.11 0 0  0.12 0 0  0.13 0 0  0.14 0 0  0.15 0 0  0.16 0 0  0.17 0 0  0.18 0 0  0.19 0 0  0.2 0 0  0.21 0 0  0.22 0 0  0.23 0 0  0.24 0 0  0.25 0 0  0.26 0 0  0.27 0 0  0.28 0 0  0.29 0 0  0.3 0 0  0.31 0 0  0.32 0 0  0.33 0 0  0.34 0 0  0.35 0 0  0.36 0 0  0.37 0 0  0.38 0 0  0.39 0 0  0.4 0 0  0.41 0 0  0.42 0 0  0.43 0 0  0.44 0 0  0.45 0 0  0.46 0 0  0.47 0 0  0.48 0 0  0.49 0 0  0.5 0 0  0.51 0 0  0.52 0 0  0.53 0 0  0.54 0 0  0.55 0 0  0.56 0 0  0.57 0 0  0.58 0 0  0.59 0 0  0.6 0 0  0.61 0 0  0.62 0 0  0.63 0 0  0.64 0 0  0.65 0 0  0.66 0 0  0.67 0 0  0.68 0 0  0.69 0 0  0.7 0 0  0.71 0 0  0.72 0 0  0.73 0 0  0.74 0 0  0.75 0 0  0.76 0 0  0.77 0 0  0.78 0 0  0.79 0 0  0.8 0 0  0.81 0 0  0.82 0 0  0.83 0 0  0.84 0 0  0.85 0 0  0.86 0 0  0.87 0 0  0.88 0 0  0.89 0 0  0.9 0 0  0.91 0 0  0.92 0 0  0.93 0 0  0.94 0 0  0.95 0 0  0.96 0 0  0.97 0 0  0.98 0 0  0.99 0 0  1 0 0  0 0.01 0  0.01 0.01 0  0.02 0.01 0  0.03 0.01 0  0.04 0.01 0  0.05 0.01 0  0.06 0.01 0  0.07 0.01 0  0.08 0.01 0  0.09 0.01 0  0.1 0.01 0  0.11 0.01 0  0.12 0.01 0  0.13 0.01 0  0.14 0.01 0  0.15 0.01 0  0.16 0.01 0  0.17 0.01 0  0.18 0.01 0  0.19 0.01 0  0.2 0.01 0  0.21 0.01 0  0.22 0.01 0  0.23 0.01 0  0.24 0.01 0  0.25 0.01 0  0.26 0.01 0  0.27 0.01 0  0.28 0.01 0  0.29 0.01 0  0.3 0.01 0  0.31 0.01 0  0.32 0.01 0  0.33 0.01 0  0.34 0.01 0  0.35 0.01 0  0.36 0.01 0  0.37 0.01 0  0.38 0.01 0  0.39 0.01 0  0.4 0.01 0  0.41 0.01 0  0.42 0.01 0  0.43 0.01 0  0.44 0.01 0  0.45 0.01 0  0.46 0.01 0  0.47 0.01 0  0.48 0.01 0  0.49 0.01 0  0.5 0.01 0  0.51 0.01 0  0.52 0.01 0  0.53 0.01 0  0.54 0.01 0  0.55 0.01 0  0.56 0.01 0  0.57 0.01 0  0.58 0.01 0  0.59 0.01 0  0.6 0.01 0  0.61 0.01 0  0.62 0.01 0  0.63 0.01 0  0.64 0.01 0  0.65 0.01 0  0.66 0.01 0  0.67 0.01 0  0.68 0.01 0  0.69 0.01 0  0.7 0.01 0  0.71 0.01 0  0.72 0.01 0  0.73 0.01 0  0.74 0.01 0  0.75 0.01 0  0.76 0.01 0  0.77 0.01 0  0.78 0.01 0  0.79 0.01 0  0.8 0.01 0  0.81 0.01 0  0.82 0.01 0  0.83 0.01 0  0.84 0.01 0  0.85 0.01 0  0.86 0.01 0  0.87 0.01 0  0.88 0.01 0  0.89 0.01 0  0.9 0.01 0  0.91 0.01 0  0.92 0.01 0  0.93 0.01 0  0.94 0.01 0  0.95 0.01 0  0.96 0.01 0  0.97 0.01 0  0.98 0.01 0  0.99 0.01 0  1 0.01 0  0 0.02 0  0.01 0.02 0  0.02 0.02 0  0.03 0.02 0  0.04 0.02 0  0.05 0.02 0  0.06 0.02 0  0.07 0.02 0  0.08 0.02 0  0.09 0.02 0  0.1 0.02 0  0.11 0.02 0  0.12 0.02 0  0.13 0.02 0  0.14 0.02 0  0.15 0.02 0  0.16 0.02 0  0.17 0.02 0  0.18 0.02 0  0.19 0.02 0  0.2 0.02 0  0.21 0.02 0  0.22 0.02 0  0.23 0.02 0  0.24 0.02 0  0.25 0.02 0  0.26 0.02 0  0.27 0.02 0  0.28 0.02 0  0.29 0.02 0  0.3 0.02 0  0.31 0.02 0  0.32 0.02 0  0.33 0.02 0  0.34 0.02 0  0.35 0.02 0  0.36 0.02 0  0.37 0.02 0  0.38 0.02 0  0.39 0.02 0  0.4 0.02 0  0.41 0.02 0  0.42 0.02 0  0.43 0.02 0  0.44 0.02 0  0.45 0.02 0  0.46 0.02 0  0.47 0.02 0  0.48 0.02 0  0.49 0.02 0  0.5 0.02 0  0.51 0.02 0  0.52 0.02 0  0.53 0.02 0  0.54 0.02 0  0.55 0.02 0  0.56 0.02 0  0.57 0.02 0  0.58 0.02 0  0.59 0.02 0  0.6 0.02 0  0.61 0.02 0  0.62 0.02 0  0.63 0.02 0  0.64 0.02 0  0.65 0.02 0  0.66 0.02 0  0.67 0.02 0  0.68 0.02 0  0.69 0.02 0  0.7 0.02 0  0.71 0.02 0  0.72 0.02 0  0.73 0.02 0  0.74 0.02 0  0.75 0.02 0  0.76 0.02 0  0.77 0.02 0  0.78 0.02 0  0.79 0.02 0  0.8 0.02 0  0.81 0.02 0  0.82 0.02 0  0.83 0.02 0  0.84 0.02 0  0.85 0.02 0  0.86 0.02 0  0.87 0.02 0  0.88 0.02 0  0.89 0.02 0  0.9 0.02 0  0.91 0.02 0  0.92 0.02 0  0.93 0.02 0  0.94 0.02 0  0.95 0.02 0  0.96 0.02 0  0.97 0.02 0  0.98 0.02 0  0.99 0.02 0  1 0.02 0  0 0.03 0  0.01 0.03 0  0.02 0.03 0  0.03 0.03 0  0.04 0.03 0  0.05 0.03 0  0.06 0.03 0  0.07 0.03 0  0.08 0.03 0  0.09 0.03 0  0.1 0.03 0  0.11 0.03 0  0.12 0.03 0  0.13 0.03 0  0.14 0.03 0  0.15 0.03 0  0.16 0.03 0  0.17 0.03 0  0.18 0.03 0  0.19 0.03 0  0.2 0.03 0  0.21 0.03 0  0.22 0.03 0  0.23 0.03 0  0.24 0.03 0  0.25 0.03 0  0.26 0.03 0  0.27 0.03 0  0.28 0.03 0  0.29 0.03 0  0.3 0.03 0  0.31 0.03 0  0.32 0.03 0  0.33 0.03 0  0.34 0.03 0  0.35 0.03 0  0.36 0.03 0  0.37 0.03 0  0.38 0.03 0  0.39 0.03 0  0.4 0.03 0  0.41 0.03 0  0.42 0.03 0  0.43 0.03 0  0.44 0.03 0  0.45 0.03 0  0.46 0.03 0  0.47 0.03 0  0.48 0.03 0  0.49 0.03 0  0.5 0.03 0  0.51 0.03 0  0.52 0.03 0  0.53 0.03 0  0.54 0.03 0  0.55 0.03 0  0.56 0.03 0  0.57 0.03 0  0.58 0.03 0  0.59 0.03 0  0.6 0.03 0  0.61 0.03 0  0.62 0.03 0  0.63 0.03 0  0.64 0.03 0  0.65 0.03 0  0.66 0.03 0  0.67 0.03 0  0.68 0.03 0  0.69 0.03 0  0.7 0.03 0  0.71 0.03 0  0.72 0.03 0  0.73 0.03 0  0.74 0.03 0  0.75 0.03 0  0.76 0.03 0  0.77 0.03 0  0.78 0.03 0  0.79 0.03 0  0.8 0.03 0  0.81 0.03 0  0.82 0.03 0  0.83 0.03 0  0.84 0.03 0  0.85 0.03 0  0.86 0.03 0  0.87 0.03 0  0.88 0.03 0  0.89 0.03 0  0.9 0.03 0  0.91 0.03 0  0.92 0.03 0  0.93 0.03 0  0.94 0.03 0  0.95 0.03 0  0.96 0.03 0  0.97 0.03 0  0.98 0.03 0  0.99 0.03 0  1 0.03 0  0 0.04 0  0.01 0.04 0  0.02 0.04 0  0.03 0.04 0  0.04 0.04 0  0.05 0.04 0  0.06 0.04 0  0.07 0.04 0  0.08 0.04 0  0.09 0.04 0  0.1 0.04 0  0.11 0.04 0  0.12 0.04 0  0.13 0.04 0  0.14 0.04 0  0.15 0.04 0  0.16 0.04 0  0.17 0.04 0  0.18 0.04 0  0.19 0.04 0  0.2 0.04 0  0.21 0.04 0  0.22 0.04 0  0.23 0.04 0  0.24 0.04 0  0.25 0.04 0  0.26 0.04 0  0.27 0.04 0  0.28 0.04 0  0.29 0.04 0  0.3 0.04 0  0.31 0.04 0  0.32 0.04 0  0.33 0.04 0  0.34 0.04 0  0.35 0.04 0  0.36 0.04 0  0.37 0.04 0  0.38 0.04 0  0.39 0.04 0  0.4 0.04 0  0.41 0.04 0  0.42 0.04 0  0.43 0.04 0  0.44 0.04 0  0.45 0.04 0  0.46 0.04 0  0.47 0.04 0  0.48 0.04 0  0.49 0.04 0  0.5 0.04 0  0.51 0.04 0  0.52 0.04 0  0.53 0.04 0  0.54 0.04 0  0.55 0.04 0  0.56 0.04 0  0.57 0.04 0  0.58 0.04 0  0.59 0.04 0  0.6 0.04 0  0.61 0.04 0  0.62 0.04 0  0.63 0.04 0  0.64 0.04 0  0.65 0.04 0  0.66 0.04 0  0.67 0.04 0  0.68 0.04 0  0.69 0.04 0  0.7 0.04 0  0.71 0.04 0  0.72 0.04 0  0.73 0.04 0  0.74 0.04 0  0.75 0.04 0  0.76 0.04 0  0.77 0.04 0  0.78 0.04 0  0.79 0.04 0  0.8 0.04 0  0.81 0.04 0  0.82 0.04 0  0.83 0.04 0  0.84 0.04 0  0.85 0.04 0  0.86 0.04 0  0.87 0.04 0  0.88 0.04 0  0.89 0.04 0  0.9 0.04 0  0.91 0.04 0  0.92 0.04 0  0.93 0.04 0  0.94 0.04 0  0.95 0.04 0  0.96 0.04 0  0.97 0.04 0  0.98 0.04 0  0.99 0.04 0  1 0.04 0  0 0.05 0  0.01 0.05 0  0.02 0.05 0  0.03 0.05 0  0.04 0.05 0  0.05 0.05 0  0.06 0.05 0  0.07 0.05 0  0.08 0.05 0  0.09 0.05 0  0.1 0.05 0  0.11 0.05 0  0.12 0.05 0  0.13 0.05 0  0.14 0.05 0  0.15 0.05 0  0.16 0.05 0  0.17 0.05 0  0.18 0.05 0  0.19 0.05 0  0.2 0.05 0  0.21 0.05 0  0.22 0.05 0  0.23 0.05 0  0.24 0.05 0  0.25 0.05 0  0.26 0.05 0  0.27 0.05 0  0.28 0.05 0  0.29 0.05 0  0.3 0.05 0  0.31 0.05 0  0.32 0.05 0  0.33 0.05 0  0.34 0.05 0  0.35 0.05 0  0.36 0.05 0  0.37 0.05 0  0.38 0.05 0  0.39 0.05 0  0.4 0.05 0  0.41 0.05 0  0.42 0.05 0  0.43 0.05 0  0.44 0.05 0  0.45 0.05 0  0.46 0.05 0  0.47 0.05 0  0.48 0.05 0  0.49 0.05 0  0.5 0.05 0  0.51 0.05 0  0.52 0.05 0  0.53 0.05 0  0.54 0.05 0  0.55 0.05 0  0.56 0.05 0  0.57 0.05 0  0.58 0.05 0  0.59 0.05 0  0.6 0.05 0  0.61 0.05 0  0.62 0.05 0  0.63 0.05 0  0.64 0.05 0  0.65 0.05 0  0.66 0.05 0  0.67 0.05 0  0.68 0.05 0  0.69 0.05 0  0.7 0.05 0  0.71 0.05 0  0.72 0.05 0  0.73 0.05 0  0.74 0.05 0  0.75 0.05 0  0.76 0.05 0  0.77 0.05 0  0.78 0.05 0  0.79 0.05 0  0.8 0.05 0  0.81 0.05 0  0.82 0.05 0  0.83 0.05 0  0.84 0.05 0  0.85 0.05 0  0.86 0.05 0  0.87 0.05 0  0.88 0.05 0  0.89 0.05 0  0.9 0.05 0  0.91 0.05 0  0.92 0.05 0  0.93 0.05 0  0.94 0.05 0  0.95 0.05 0  0.96 0.05 0  0.97 0.05 0  0.98 0.05 0  0.99 0.05 0  1 0.05 0  0 0.06 0  0.01 0.06 0  0.02 0.06 0  0.03 0.06 0  0.04 0.06 0  0.05 0.06 0  0.06 0.06 0  0.07 0.06 0  0.08 0.06 0  0.09 0.06 0  0.1 0.06 0  0.11 0.06 0  0.12 0.06 0  0.13 0.06 0  0.14 0.06 0  0.15 0.06 0  0.16 0.06 0  0.17 0.06 0  0.18 0.06 0  0.19 0.06 0  0.2 0.06 0  0.21 0.06 0  0.22 0.06 0  0.23 0.06 0  0.24 0.06 0  0.25 0.06 0  0.26 0.06 0  0.27 0.06 0  0.28 0.06 0  0.29 0.06 0  0.3 0.06 0  0.31 0.06 0  0.32 0.06 0  0.33 0.06 0  0.34 0.06 0  0.35 0.06 0  0.36 0.06 0  0.37 0.06 0  0.38 0.06 0  0.39 0.06 0  0.4 0.06 0  0.41 0.06 0  0.42 0.06 0  0.43 0.06 0  0.44 0.06 0  0.45 0.06 0  0.46 0.06 0  0.47 0.06 0  0.48 0.06 0  0.49 0.06 0  0.5 0.06 0  0.51 0.06 0  0.52 0.06 0  0.53 0.06 0  0.54 0.06 0  0.55 0.06 0  0.56 0.06 0  0.57 0.06 0  0.58 0.06 0  0.59 0.06 0  0.6 0.06 0  0.61 0.06 0  0.62 0.06 0  0.63 0.06 0  0.64 0.06 0  0.65 0.06 0  0.66 0.06 0  0.67 0.06 0  0.68 0.06 0  0.69 0.06 0  0.7 0.06 0  0.71 0.06 0  0.72 0.06 0  0.73 0.06 0  0.74 0.06 0  0.75 0.06 0  0.76 0.06 0  0.77 0.06 0  0.78 0.06 0  0.79 0.06 0  0.8 0.06 0  0.81 0.06 0  0.82 0.06 0  0.83 0.06 0  0.84 0.06 0  0.85 0.06 0  0.86 0.06 0  0.87 0.06 0  0.88 0.06 0  0.89 0.06 0  0.9 0.06 0  0.91 0.06 0  0.92 0.06 0  0.93 0.06 0  0.94 0.06 0  0.95 0.06 0  0.96 0.06 0  0.97 0.06 0  0.98 0.06 0  0.99 0.06 0  1 0.06 0  0 0.07 0  0.01 0.07 0  0.02 0.07 0  0.03 0.07 0  0.04 0.07 0  0.05 0.07 0  0.06 0.07 0  0.07 0.07 0  0.08 0.07 0  0.09 0.07 0  0.1 0.07 0  0.11 0.07 0  0.12 0.07 0  0.13 0.07 0  0.14 0.07 0  0.15 0.07 0  0.16 0.07 0  0.17 0.07 0  0.18 0.07 0  0.19 0.07 0  0.2 0.07 0  0.21 0.07 0  0.22 0.07 0  0.23 0.07 0  0.24 0.07 0  0.25 0.07 0  0.26 0.07 0  0.27 0.07 0  0.28 0.07 0  0.29 0.07 0  0.3 0.07 0  0.31 0.07 0  0.32 0.07 0  0.33 0.07 0  0.34 0.07 0  0.35 0.07 0  0.36 0.07 0  0.37 0.07 0  0.38 0.07 0  0.39 0.07 0  0.4 0.07 0  0.41 0.07 0  0.42 0.07 0  0.43 0.07 0  0.44 0.07 0  0.45 0.07 0  0.46 0.07 0  0.47 0.07 0  0.48 0.07 0  0.49 0.07 0  0.5 0.07 0  0.51 0.07 0  0.52 0.07 0  0.53 0.07 0  0.54 0.07 0  0.55 0.07 0  0.56 0.07 0  0.57 0.07 0  0.58 0.07 0  0.59 0.07 0  0.6 0.07 0  0.61 0.07 0  0.62 0.07 0  0.63 0.07 0  0.64 0.07 0  0.65 0.07 0  0.66 0.07 0  0.67 0.07 0  0.68 0.07 0  0.69 0.07 0  0.7 0.07 0  0.71 0.07 0  0.72 0.07 0  0.73 0.07 0  0.74 0.07 0  0.75 0.07 0  0.76 0.07 0  0.77
[...]
<PointData  Vectors="u"> 
<DataArray  type="Float32"  Name="u"  NumberOfComponents="3" format="ascii">0.000000e+00 0.000000e+00 0.000000e+00  0.000000e+00 0.000000e+00 0.000000e+00  0.000000e+00 0.000000e+00 0.000000e+00  0.000000e+00 0.000000e+00 0.000000e+00  0.000000e+00 0.000000e+00 0.000000e+00  0.000000e+00 0.000000e+00 0.000000e+00  0.000000e+00 0.000000e+00 0.000000e+00  0.000000e+00 0.000000e+00 0.000000e+00  0.000000e+00 0.000000e+00 0.000000e+00  0.000000e+00 0.000000e+00 0.000000e+00  0.000000e+00 0.000000e+00 0.000000e+00  0.000000e+00 0.000000e+00 0.000000e+00  0.000000e+00 0.000000e+00 0.000000e+00  0.000000e+00 0.000000e+00 0.000000e+00  0.000000e+00 0.000000e+00 0.000000e+00  0.000000e+00 0.000000e+00 0.000000e+00  0.000000e+00 0.000000e+00 0.000000e+00  0.000000e+00 0.000000e+00 0.000000e+00  0.000000e+00 0.000000e+00 0.000000e+00  0.000000e+00 0.000000e+00 0.000000e+00  0.000000e+00 0.000000e+00 0.000000e+00  0.000000e+00 0.000000e+00 0.000000e+00  0.000000e+00 0.000000e+00 0.000000e+00  0.000000e+00 0.000000e+00 0.000000e+00  0.000000e+00 0.000000e+00 0.000000e+00  0.000000e+00 0.000000e+00 0.000000e+00  0.000000e+00 0.000000e+00 0.000000e+00  0.000000e+00 0.000000e+00 0.000000e+00  0.000000e+00 0.000000e+00 0.000000e+00  0.000000e+00 0.000000e+00 0.000000e+00  0.000000e+00 0.000000e+00 0.000000e+00  0.000000e+00 0.000000e+00 0.000000e+00  0.000000e+00 0.000000e+00 0.000000e+00  0.000000e+00 0.000000e+00 0.000000e+00  0.000000e+00 0.000000e+00 0.000000e+00  0.000000e+00 0.000000e+00 0.000000e+00  0.000000e+00 0.000000e+00 0.000000e+00  0.000000e+00 0.000000e+00 0.000000e+00  0.000000e+00 0.000000e+00 0.000000e+00  0.000000e+00 0.000000e+00 0.000000e+00  0.000000e+00 0.000000e+00 0.000000e+00  0.000000e+00 0.000000e+00 0.000000e+00  0.000000e+00 0.000000e+00 0.000000e+00  0.000000e+00 0.000000e+00 0.000000e+00  0.000000e+00 0.000000e+00 0.000000e+00  0.000000e+00 0.000000e+00 0.000000e+00  0.000000e+00 0.000000e+00 0.000000e+00  0.000000e+00 0.000000e+00 0.000000e+00  0.000000e+00 0.000000e+00 0.000000e+00  0.000000e+00 0.000000e+00 0.000000e+00  0.000000e+00 0.000000e+00 0.000000e+00  0.000000e+00 0.000000e+00 0.000000e+00  0.000000e+00 0.000000e+00 0.000000e+00  0.000000e+00 0.000000e+00 0.000000e+00  0.000000e+00 0.000000e+00 0.000000e+00  0.000000e+00 0.000000e+00 0.000000e+00  0.000000e+00 0.000000e+00 0.000000e+00  0.000000e+00 0.000000e+00 0.000000e+00  0.000000e+00 0.000000e+00 0.000000e+00  0.000000e+00 0.000000e+00 0.000000e+00  0.000000e+00 0.000000e+00 0.000000e+00  0.000000e+00 0.000000e+00 0.000000e+00  0.000000e+00 0.000000e+00 0.000000e+00  0.000000e+00 0.000000e+00 0.000000e+00  0.000000e+00 0.000000e+00 0.000000e+00  0.000000e+00 0.000000e+00 0.000000e+00  0.000000e+00 0.000000e+00 0.000000e+00  0.000000e+00 0.000000e+00 0.000000e+00  0.000000e+00 0.000000e+00 0.000000e+00  0.000000e+00 0.000000e+00 0.000000e+00  0.000000e+00 0.000000e+00 0.000000e+00  0.000000e+00 0.000000e+00 0.000000e+00  0.000000e+00 0.000000e+00 0.000000e+00  0.000000e+00 0.000000e+00 0.000000e+00  0.000000e+00 0.000000e+00 0.000000e+00  0.000000e+00 0.000000e+00 0.000000e+00  0.000000e+00 0.000000e+00 0.000000e+00  0.000000e+00 0.000000e+00 0.000000e+00  0.000000e+00 0.000000e+00 0.000000e+00  0.000000e+00 0.000000e+00 0.000000e+00  0.000000e+00 0.000000e+00 0.000000e+00  0.000000e+00 0.000000e+00 0.000000e+00  0.000000e+00 0.000000e+00 0.000000e+00  0.000000e+00 0.000000e+00 0.000000e+00  0.000000e+00 0.000000e+00 0.000000e+00  0.000000e+00 0.000000e+00 0.000000e+00  0.000000e+00 0.000000e+00 0.000000e+00  0.000000e+00 0.000000e+00 0.000000e+00  0.000000e+00 0.000000e+00 0.000000e+00  0.000000e+00 0.000000e+00 0.000000e+00  0.000000e+00 0.000000e+00 0.000000e+00  0.000000e+00 0.000000e+00 0.000000e+00  0.000000e+00 0.000000e+00 0.000000e+00  0.000000e+00 0.000000e+00 0.000000e+00  0.000000e+00 0.000000e+00 0.000000e+00  0.000000e+00 0.000000e+00 0.000000e+00  0.000000e+00 0.000000e+00 0.000000e+00  0.000000e+00 0.000000e+00 0.000000e+00  0.000000e+00 0.000000e+00 0.000000e+00  0.000000e+00 0.000000e+00 0.000000e+00  0.000000e+00 0.000000e+00 0.000000e+00  9.900000e-03 0.000000e+00 0.000000e+00  9.900000e-03 0.000000e+00 0.000000e+00  9.900000e-03 0.000000e+00 0.000000e+00  9.900000e-03 0.000000e+00 0.000000e+00  9.900000e-03 0.000000e+00 0.000000e+00  9.900000e-03 0.000000e+00 0.000000e+00  9.900000e-03 0.000000e+00 0.000000e+00  9.900000e-03 0.000000e+00 0.000000e+00  9.900000e-03 0.000000e+00 0.000000e+00  9.900000e-03 0.000000e+00 0.000000e+00  9.900000e-03 0.000000e+00 0.000000e+00  9.900000e-03 0.000000e+00 0.000000e+00  9.900000e-03 0.000000e+00 0.000000e+00  9.900000e-03 0.000000e+00 0.000000e+00  9.900000e-03 0.000000e+00 0.000000e+00  9.900000e-03 0.000000e+00 0.000000e+00  9.900000e-03 0.000000e+00 0.000000e+00  9.900000e-03 0.000000e+00 0.000000e+00  9.900000e-03 0.000000e+00 0.000000e+00  9.900000e-03 0.000000e+00 0.000000e+00  9.900000e-03 0.000000e+00 0.000000e+00  9.900000e-03 0.000000e+00 0.000000e+00  9.900000e-03 0.000000e+00 0.000000e+00  9.900000e-03 0.000000e+00 0.000000e+00  9.900000e-03 0.000000e+00 0.000000e+00  9.900000e-03 0.000000e+00 0.000000e+00  9.900000e-03 0.000000e+00 0.000000e+00  9.900000e-03 0.000000e+00 0.000000e+00  9.900000e-03 0.000000e+00 0.000000e+00  9.900000e-03 0.000000e+00 0.000000e+00  9.900000e-03 0.000000e+00 0.000000e+00  9.900000e-03 0.000000e+00 0.000000e+00  9.900000e-03 0.000000e+00 0.000000e+00  9.900000e-03 0.000000e+00 0.000000e+00  9.900000e-03 0.000000e+00 0.000000e+00  9.900000e-03 0.000000e+00 0.000000e+00  9.900000e-03 0.000000e+00 0.000000e+00  9.900000e-03 0.000000e+00 0.000000e+00  9.900000e-03 0.000000e+00 0.000000e+00  9.900000e-03 0.000000e+00 0.000000e+00  9.900000e-03 0.000000e+00 0.000000e+00  9.900000e-03 0.000000e+00 0.000000e+00  9.900000e-03 0.000000e+00 0.000000e+00  9.900000e-03 0.000000e+00 0.000000e+00  9.900000e-03 0.000000e+00 0.000000e+00  9.900000e-03 0.000000e+00 0.000000e+00  9.900000e-03 0.000000e+00 0.000000e+00  9.900000e-03 0.000000e+00 0.000000e+00  9.900000e-03 0.000000e+00 0.000000e+00  9.900000e-03 0.000000e+00 0.000000e+00  9.900000e-03 0.000000e+00 0.000000e+00  9.900000e-03 0.000000e+00 0.000000e+00  9.900000e-03 0.000000e+00 0.000000e+00  9.900000e-03 0.000000e+00 0.000000e+00  9.900000e-03 0.000000e+00 0.000000e+00  9.900000e-03 0.000000e+00 0.000000e+00  9.900000e-03 0.000000e+00 0.000000e+00  9.900000e-03 0.000000e+00 0.000000e+00  9.900000e-03 0.000000e+00 0.000000e+00  9.900000e-03 0.000000e+00 0.000000e+00  9.900000e-03 0.000000e+00 0.000000e+00  9.900000e-03 0.000000e+00 0.000000e+00  9.900000e-03 0.000000e+00 0.000000e+00  9.900000e-03 0.000000e+00 0.000000e+00  9.900000e-03 0.000000e+00 0.000000e+00  9.900000e-03 0.000000e+00 0.000000e+00  9.900000e-03 0.000000e+00 0.000000e+00  9.900000e-03 0.000000e+00 0.000000e+00  9.900000e-03 0.000000e+00 0.000000e+00  9.900000e-03 0.000000e+00 0.000000e+00  9.900000e-03 0.000000e+00 0.000000e+00  9.900000e-03 0.000000e+00 0.000000e+00  9.900000e-03 0.000000e+00 0.000000e+00  9.900000e-03 0.000000e+00 0.000000e+00  9.900000e-03 0.000000e+00 0.000000e+00  9.900000e-03 0.000000e+00 0.000000e+00  9.900000e-03 0.000000e+00 0.000000e+00  9.900000e-03 0.000000e+00 0.000000e+00  9.900000e-03 0.000000e+00 0.000000e+00  9.900000e-03 0.000000e+00 0.000000e+00  9.900000e-03 0.000000e+00 0.000000e+00  9.900000e-03 0.000000e+00 0.000000e+00  9.900000e-03 0.000000e+00 0.000000e+00  9.900000e-03 0.000000e+00 0.000000e+00  9.900000e-03 0.000000e+00 0.000000e+00  9.900000e-03 0.000000e+00 0.000000e+00  9.900000e-03 0.000000e+00 0.000000e+00  9.900000e-03 0.000000e+00 0.000000e+00  9.900000e-03 0.000000e+00 0.000000e+00  9.900000e-03 0.000000e+00 0.000000e+00  9.900000e-03 0.000000e+00 0.000000e+00  9.900000e-03 0.000000e+00 0.000000e+00  9.900000e-03 0.000000e+00 0.000000e+00  9.900000e-03 0.000000e+00 0.000000e+00  9.900000e-03 0.000000e+00 0.000000e+00  9.900000e-03 0.000000e+00 0.000000e+00  9.900000e-03 0.000000e+00 0.000000e+00  9.900000e-03 0.000000e+00 0.000000e+00  9.900000e-03 0.000000e+00 0.000000e+00  9.900000e-03 0.000000e+00 0.000000e+00  9.900000e-03 0.000000e+00 0.000000e+00  1.960000e-02 0.000000e+00 0.000000e+00  1.960000e-02 0.000000e+00 0.000000e+00  1.960000e-02 0.000000e+00 0.000000e+00  1.960000e-02 3.194348e-16 0.000000e+00  1.960000e-02 3.820016e-16 0.000000e+00  1.960000e-02 4.201648e-16 0.000000e+00  1.960000e-02 4.600558e-16 0.000000e+00  1.960000e-02 5.036640e-16 0.000000e+00  1.960000e-02 5.163771e-16 0.000000e+00  1.960000e-02 5.330655e-16 0.000000e+00  1.960000e-02 5.405575e-16 0.000000e+00  1.960000e-02 5.573794e-16 0.000000e+00  1.960000e-02 5.296732e-16 0.000000e+00  1.960000e-02 4.109453e-16 0.000000e+00  1.960000e-02 3.982447e-16 0.000000e+00  1.960000e-02 4.078154e-16 0.000000e+00  1.960000e-02 4.113196e-16 0.000000e+00  1.960000e-02 4.268502e-16 0.000000e+00  1.960000e-02 4.332659e-16 0.000000e+00  1.960000e-02 4.482817e-16 0.000000e+00  1.960000e-02 4.606559e-16 0.000000e+00  1.960000e-02 4.741517e-16 0.000000e+00  1.960000e-02 4.879335e-16 0.000000e+00  1.960000e-02 4.580718e-16 0.000000e+00  1.960000e-02 4.001300e-16 0.000000e+00  1.960000e-02 3.495560e-16 0.000000e+00  1.960000e-02 3.191122e-16 0.000000e+00  1.960000e-02 3.001231e-16 0.000000e+00  1.960000e-02 0.000000e+00 0.000000e+00  1.960000e-02 0.000000e+00 0.000000e+00  1.960000e-02 0.000000e+00 0.000000e+00  1.960000e-02 0.000000e+00 0.000000e+00  1.960000e-02 0.000000e+00 0.000000e+00  1.960000e-02 0.000000e+00 0.000000e+00  1.960000e-02 0.000000e+00 0.000000e+00  1.960000e-02 0.000000e+00 0.000000e+00  1.960000e-02 0.000000e+00 0.000000e+00  1.960000e-02 0.000000e+00 0.000000e+00  1.960000e-02 0.000000e+00 0.000000e+00  1.960000e-02 0.000000e+00 0.000000e+00  1.960000e-02 0.000000e+00 0.000000e+00  1.960000e-02 0.000000e+00 0.000000e+00  1.960000e-02 0.000000e+00 0.000000e+00  1.960000e-02 0.000000e+00 0.000000e+00  1.960000e-02 0.000000e+00 0.000000e+00  1.960000e-02 0.000000e+00 0.000000e+00  1.960000e-02 0.000000e+00 0.000000e+00  1.960000e-02 0.000000e+00 0.000000e+00  1.960000e-02 0.000000e+00 0.000000e+00  1.960000e-02 0.000000e+00 0.000000e+00  1.960000e-02 0.000000e+00 0.000000e+00  1.960000e-02 0.000000e+00 0.000000e+00  1.960000e-02 0.000000e+00 0.000000e+00  1.960000e-02 0.000000e+00 0.000000e+00  1.960000e-02 0.000000e+00 0.000000e+00  1.960000e-02 0.000000e+00 0.000000e+00  1.960000e-02 0.000000e+00 0.000000e+00  1.960000e-02 0.000000e+00 0.000000e+00  1.960000e-02 0.000000e+00 0.000000e+00  1.960000e-02 0.000000e+00 0.000000e+00  1.960000e-02 0.000000e+00 0.000000e+00  1.960000e-02 0.000000e+00 0.000000e+00  1.960000e-02 0.000000e+00 0.000000e+00  1.960000e-02 0.000000e+00 0.000000e+00  1.960000e-02 0.000000e+00 0.000000e+00  1.960000e-02 0.000000e+00 0.000000e+00  1.960000e-02 0.000000e+00 0.000000e+00  1.960000e-02 0.000000e+00 0.000000e+00  1.960000e-02 0.000000e+00 0.000000e+00  1.960000e-02 0.000000e+00 0.000000e+00  1.960000e-02 0.000000e+00 0.000000e+00  1.960000e-02 0.000000e+00 0.000000e+00  1.960000e-02 0.000000e+00 0.000000e+00  1.960000e-02 0.000000e+00 0.000000e+00  1.960000e-02 0.000000e+00 0.000000e+00  1.960000e-02 0.000000e+00 0.000000e+00  1.960000e-02 0.000000e+00 0.000000e+00  1.960000e-02 0.000000e+00 0.000000e+00  1.960000e-02 0.000000e+00 0.000000e+00  1.960000e-02 0.000000e+00 0.000000e+00  1.960000e-02 0.000000e+00 0.000000e+00  1.960000e-02 0.000000e+00 0.000000e+00  1.960000e-02 0.000000e+00 0.000000e+00  1.960000e-02 0.000000e+00 0.000000e+00  1.960000e-02 0.000000e+00 0.000000e+00  1.960000e-02 0.000000e+00 0.000000e+00  1.960000e-02 0.000000e+00 0.000000e+00  1.960000e-02 0.000000e+00 0.000000e+00  1.960000e-02 0.000000e+00 0.000000e+00  1.960000e-02 0.000000e+00 0.000000e+00  1.960000e-02 0.000000e+00 0.000000e+00  1.960000e-02 0.000000e+00 0.000000e+00  1.960000e-02 0.000000e+00 0.000000e+00  1.960000e-02 0.000000e+00 0.000000e+00  1.960000e-02 0.000000e+00 0.000000e+00  1.960000e-02 0.000000e+00 0.000000e+00  1.960000e-02 0.000000e+00 0.000000e+00  1.960000e-02 0.000000e+00 0.000000e+00  1.960000e-02 0.000000e+00 0.000000e+00  1.960000e-02 0.000000e+00 0.000000e+00  1.960000e-02 0.000000e+00 0.000000e+00  2.910000e-02 0.000000e+00 0.000000e+00  2.910000e-02 0.000000e+00 0.000000e+00  2.910000e-02 4.961961e-16 0.000000e+00  2.910000e-02 6.635213e-16 0.000000e+00  2.910000e-02 7.895229e-16 0.000000e+00  2.910000e-02 8.734262e-16 0.000000e+00  2.910000e-02 9.460037e-16 0.000000e+00  2.910000e-02 1.029584e-15 0.000000e+00  2.910000e-02 1.091010e-15 0.000000e+00  2.910000e-02 1.122819e-15 0.000000e+00  2.910000e-02 1.123784e-15 0.000000e+00  2.910000e-02 1.119375e-15 0.000000e+00  2.910000e-02 1.091530e-15 0.000000e+00  2.910000e-02 9.932598e-16 0.000000e+00  2.910000e-02 9.261765e-16 0.000000e+00  2.910000e-02 9.123468e-16 0.000000e+00  2.910000e-02 9.217991e-16 0.000000e+00  2.910000e-02 9.496000e-16 0.000000e+00  2.910000e-02 9.648644e-16 0.000000e+00  2.910000e-02 9.796918e-16 0.000000e+00  2.910000e-02 9.960944e-16 0.000000e+00  2.910000e-02 1.008074e-15 0.000000e+00  2.910000e-02 1.010277e-15 0.000000e+00  2.910000e-02 9.724504e-16 0.000000e+00  2.910000e-02 8.623896e-16 0.000000e+00  2.910000e-02 7.828897e-16 0.000000e+00  2.910000e-02 7.449758e-16 0.000000e+00  2.910000e-02 6.988952e-16 0.000000e+00  2.910000e-02 6.310740e-16 0.000000e+00  2.910000e-02 5.748339e-16 0.000000e+00  2.910000e-02 5.271342e-16 0.000000e+00  2.910000e-02 4.669436e-16 0.000000e+00  2.910000e-02 3.895997e-16 0.000000e+00  2.910000e-02 3.611459e-16 0.000000e+00  2.910000e-02 3.560637e-16 0.000000e+00  2.910000e-02 3.569917e-16 0.000000e+00  2.910000e-02 3.539255e-16 0.000000e+00  2.910000e-02 3.274184e-16 0.000000e+00  2.910000e-02 0.000000e+00 0.000000e+00  2.910000e-02 0.000000e+00 0.000000e+00  2.910000e-02 0.000000e+00 0.000000e+00  2.910000e-02 0.000000e+00 0.000000e+00  2.910000e-02 0.000000e+00 0.000000e+00  2.910000e-02 0.000000e+00 0.000000e+00  2.910000e-02 0.000000e+00 0.000000e+00  2.910000e-02 0.000000e+00 0.000000e+00  2.910000e-02 0.000000e+00 0.000000e+00  2.910000e-02 0.000000e+00 0.000000e+00  2.910000e-02 0.000000e+00 0.000000e+00  2.910000e-02 0.000000e+00 0.000000e+00  2.910000e-02 0.000000e+00 0.000000e+00  2.910000e-02 0.000000e+00 0.000000e+00  2.910000e-02 0.000000e+00 0.000000e+00  2.910000e-02 0.000000e+00 0.000000e+00  2.910000e-02 0.000000e+00 0.000000e+00  2.910000e-02 0.000000e+00 0.000000e+00  2.910000e-02 0.000000e+00 0.000000e+00  2.910000e-02 0.000000e+00 0.000000e+00  2.910000e-02 0.000000e+00 0.000000e+00  2.910000e-02 0.000000e+00 0.000000e+00  2.910000e-02 0.000000e+00 0.000000e+00  2.910000e-02 0.000000e+00 0.000000e+00  2.910000e-02 0.000000e+00 0.000000e+00  2.910000e-02 0.000000e+00 0.000000e+00  2.910000e-02 0.000000e+00 0.000000e+00  2.910000e-02 0.000000e+00 0.000000e+00  2.910000e-02 0.000000e+00 0.000000e+00  2.910000e-02 0.000000e+00 0.000000e+00  2.910000e-02 0.000000e+00 0.000000e+00  2.910000e-02 0.000000e+00 0.000000e+00  2.910000e-02 0.000000e+00 0.000000e+00  2.910000e-02 0.000000e+00 0.000000e+00  2.910000e-02 0.000000e+00 0.000000e+00  2.910000e-02 0.000000e+00 0.000000e+00  2.910000e-02 0.000000e+00 0.000000e+00  2.910000e-02 0.000000e+00 0.000000e+00  2.910000e-02 0.000000e+00 0.000000e+00  2.910000e-02 0.000000e+00 0.000000e+00  2.910000e-02 0.000000e+00 0.000000e+00  2.910000e-02 0.000000e+00 0.000000e+00  2.910000e-02 0.000000e+00 0.000000e+00  2.910000e-02 0.000000e+00 0.000000e+00  2.910000e-02 0.000000e+00 0.000000e+00  2.910000e-02 0.000000e+00 0.000000e+00  2.910000e-02 0.000000e+00 0.000000e+00  2.910000e-02 0.000000e+00 0.000000e+00  2.910000e-02 0.000000e+00 0.000000e+00  2.910000e-02 0.000000e+00 0.000000e+00  2.910000e-02 0.000000e+00 0.000000e+00  2.910000e-02 0.000000e+00 0.000000e+00  2.910000e-02 0.000000e+00 0.000000e+00  2.910000e-02 0.000000e+00 0.000000e+00  2.910000e-02 0.000000e+00 0.000000e+00  2.910000e-02 0.000000e+00 0.000000e+00  2.910000e-02 0.000000e+00 0.000000e+00  2.910000e-02 0.000000e+00 0.000000e+00  2.910000e-02 0.000000e+00 0.000000e+00  2.910000e-02 0.000000e+00 0.000000e+00  2.910000e-02 0.000000e+00 0.000000e+00  2.910000e-02 0.000000e+00 0.000000e+00  2.910000e-02 0.000000e+00 0.000000e+00  3.840000e-02 0.000000e+00 0.000000e+00  3.840000e-02 4.616394e-16 0.000000e+00  3.840000e-02 8.164366e-16 0.000000e+00  3.840000e-02 1.090597e-15 0.000000e+00  3.840000e-02 1.306188e-15 0.000000e+00  3.840000e-02 1.442727e-15 0.000000e+00  3.840000e-02 1.553300e-15 0.000000e+00  3.840000e-02 1.668711e-15 0.000000e+00  3.840000e-02 1.779423e-15 0.000000e+00  3.840000e-02 1.829418e-15 0.000000e+00  3.840000e-02 1.864213e-15 0.000000e+00  3.840000e-02 1.857329e-15 0.000000e+00  3.840000e-02 1.834873e-15 0.000000e+00  3.840000e-02 1.763244e-15 0.000000e+00  3.840000e-02 1.579510e-15 0.000000e+00  3.840000e-02 1.568540e-15 0.000000e+00  3.840000e-02 1.620490e-15 0.000000e+00  3.840000e-02 1.677300e-15 0.000000e+00  3.840000e-02 1.719931e-15 0.000000e+00  3.840000e-02 1.716096e-15 0.000000e+00  3.840000e-02 1.698820e-15 0.000000e+00  3.840000e-02 1.668164e-15 0.000000e+00  3.840000e-02 1.612745e-15 0.000000e+00  3.840000e-02 1.567214e-15 0.000000e+00  3.840000e-02 1.499372e-15 0.000000e+00  3.840000e-02 1.411859e-15 0.000000e+00  3.840000e-02 1.355506e-15 0.000000e+00  3.840000e-02 1.238657e-15 0.000000e+00  3.840000e-02 1.108946e-15 0.000000e+00  3.840000e-02 1.007137e-15 0.000000e+00  3.840000e-02 8.948391e-16 0.000000e+00  3.840000e-02 8.122187e-16 0.000000e+00  3.840000e-02 7.312565e-16 0.000000e+00  3.840000e-02 6.297770e-16 0.000000e+00  3.840000e-02 6.029222e-16 0.000000e+00  3.840000e-02 6.165573e-16 0.000000e+00  3.840000e-02 5.844361e-16 0.000000e+00  3.840000e-02 5.427711e-16 0.000000e+00  3.840000e-02 4.989732e-16 0.000000e+00  3.840000e-02 4.509847e-16 0.000000e+00  3.840000e-02 3.775317e-16 0.000000e+00  3.840000e-02 3.124401e-16 0.000000e+00  3.840000e-02 0.000000e+00 0.000000e+00  3.840000e-02 0.000000e+00 0.000000e+00  3.840000e-02 0.000000e+00 0.000000e+00  3.840000e-02 0.000000e+00 0.000000e+00  3.840000e-02 0.000000e+00 0.000000e+00  3.840000e-02 0.000000e+00 0.000000e+00  3.840000e-02 0.000000e+00 0.000000e+00  3.840000e-02 0.000000e+00 0.000000e+00  3.840000e-02 0.000000e+00 0.000000e+00  3.840000e-02 0.000000e+00 0.000000e+00  3.840000e-02 0.000000e+00 0.000000e+00  3.840000e-02 0.000000e+00 0.000000e+00  3.840000e-02 0.000000e+00 0.000000e+00  3.840000e-02 0.000000e+00 0.000000e+00  3.840000e-02 0.000000e+00 0.000000e+00  3.840000e-02 -3.198429e-16 0.000000e+00  3.840000e-02 -3.743408e-16 0.000000e+00  3.840000e-02 -4.108492e-16 0.000000e+00  3.840000e-02 -4.339718e-16 0.000000e+00  3.840000e-02 -4.629164e-16 0.000000e+00  3.840000e-02 -4.747754e-16 0.000000e+00  3.840000e-02 -4.315914e-16 0.000000e+00  3.840000e-02 -3.388958e-16 0.000000e+00  3.840000e-02 0.000000e+00 0.000000e+00  3.840000e-02 0.000000e+00 0.000000e+00  3.840000e-02 0.000000e+00 0.000000e+00  3.840000e-02 0.000000e+00 0.000000e+00  3.840000e-02 0.000000e+00 0.000000e+00  3.840000e-02 0.000000e+00 0.000000e+00  3.840000e-02 0.000000e+00 0.000000e+00  3.840000e-02 0.000000e+00 0.000000e+00  3.840000e-02 0.000000e+00 0.000000e+00  3.840000e-02 0.000000e+00 0.000000e+00  3.840000e-02 0.000000e+00 0.000000e+00  3.840000e-02 0.000000e+00 0.000000e+00  3.840000e-02 0.000000e+00 0.000000e+00  3.840000e-02 0.000000e+00 0.000000e+00  3.840000e-02 0.000000e+00 0.000000e+00  3.840000e-02 0.000000e+00 0.000000e+00  3.840000e-02 0.000000e+00 0.000000e+00  3.840000e-02 0.000000e+00 0.000000e+00  3.840000e-02 0.000000e+00 0.000000e+00  3.840000e-02 0.000000e+00 0.000000e+00  3.840000e-02 0.000000e+00 0.000000e+00  3.840000e-02 0.000000e+00 0.000000e+00  3.840000e-02 0.000000e+00 0.000000e+00  3.840000e-02 0.000000e+00 0.000000e+00  3.840000e-02 0.000000e+00 0.000000e+00  3.840000e-02 0.000000e+00 0.000000e+00  3.840000e-02 0.000000e+00 0.000000e+00  3.840000e-02 0.000000e+00 0.000000e+00  3.840000e-