<?xml version="1.0"?>
<VTKFile type="UnstructuredGrid"  version="0.1"  >
<UnstructuredGrid>
<Piece  NumberOfPoints="10201" NumberOfCells="20000">
<Points>
<DataArray  type="Float32"  NumberOfComponents="3"  format="ascii">0 0 0  0.01 0 0  0.02 0 0  0.03 0 0  0.04 0 0  0.05 0 0  0.06 0 0  0.07 0 0  0.08 0 0  0.09 0 0  0.1 0 0  0.11 0 0  0.12 0 0  0.13 0 0  0.14 0 0  0.15 0 0  0.16 0 0  0.17 0 0  0.18 0 0  0.19 0 0  0.2 0 0  0.21 0 0  0.22 0 0  0.23 0 0  0.24 0 0  0.25 0 0  0.26 0 0  0.27 0 0  0.28 0 0  0.29 0 0  0.3 0 0  0.31 0 0  0.32 0 0  0.33 0 0  0.34 0 0  0.35 0 0  0.36 0 0  0.37 0 0  0.38 0 0  0.39 0 0  0.4 0 0  0.41 0 0  0.42 0 0  0.43 0 0  0.44 0 0  0.45 0 0  0.46 0 0  0.47 0 0  0.48 0 0  0.49 0 0  0.5 0 0  0.51 0 0  0.52 0 0  0.53 0 0  0.54 0 0  0.55 0 0  0.56 0 0  0.57 0 0  0.58 0 0  0.59 0 0  0.6 0 0  0.61 0 0  0.62 0 0  0.63 0 0  0.64 0 0  0.65 0 0  0.66 0 0  0.67 0 0  0.68 0 0  0.69 0 0  0.7 0 0  0.71 0 0  0.72 0 0  0.73 0 0  0.74 0 0  0.75 0 0  0.76 0 0  0.77 0 0  0.78 0 0  0.79 0 0  0.8 0 0  0.81 0 0  0.82 0 0  0.83 0 0  0.84 0 0  0.85 0 0  0.86 0 0  0.87 0 0  0.88 0 0  0.89 0 0  0.9 0 0  0.91 0 0  0.92 0 0  0.93 0 0  0.94 0 0  0.95 0 0  0.96 0 0  0.97 0 0  0.98 0 0  0.99 0 0  1 0 0  0 0.01 0  0.01 0.01 0  0.02 0.01 0  0.03 0.01 0  0.04 0.01 0  0.05 0.01 0  0.06 0.01 0  0.07 0.01 0  0.08 0.01 0  0.09 0.01 0  0.1 0.01 0  0.11 0.01 0  0.12 0.01 0  0.13 0.01 0  0.14 0.01 0  0.15 0.01 0  0.16 0.01 0  0.17 0.01 0  0.18 0.01 0  0.19 0.01 0  0.2 0.01 0  0.21 0.01 0  0.22 0.01 0  0.23 0.01 0  0.24 0.01 0  0.25 0.01 0  0.26 0.01 0  0.27 0.01 0  0.28 0.01 0  0.29 0.01 0  0.3 0.01 0  0.31 0.01 0  0.32 0.01 0  0.33 0.01 0  0.34 0.01 0  0.35 0.01 0  0.36 0.01 0  0.37 0.01 0  0.38 0.01 0  0.39 0.01 0  0.4 0.01 0  0.41 0.01 0  0.42 0.01 0  0.43 0.01 0  0.44 0.01 0  0.45 0.01 0  0.46 0.01 0  0.47 0.01 0  0.48 0.01 0  0.49 0.01 0  0.5 0.01 0  0.51 0.01 0  0.52 0.01 0  0.53 0.01 0  0.54 0.01 0  0.55 0.01 0  0.56 0.01 0  0.57 0.01 0  0.58 0.01 0  0.59 0.01 0  0.6 0.01 0  0.61 0.01 0  0.62 0.01 0  0.63 0.01 0  0.64 0.01 0  0.65 0.01 0  0.66 0.01 0  0.67 0.01 0  0.68 0.01 0  0.69 0.01 0  0.7 0.01 0  0.71 0.01 0  0.72 0.01 0  0.73 0.01 0  0.74 0.01 0  0.75 0.01 0  0.76 0.01 0  0.77 0.01 0  0.78 0.01 0  0.79 0.01 0  0.8 0.01 0  0.81 0.01 0  0.82 0.01 0  0.83 0.01 0  0.84 0.01 0  0.85 0.01 0  0.86 0.01 0  0.87 0.01 0  0.88 0.01 0  0.89 0.01 0  0.9 0.01 0  0.91 0.01 0  0.92 0.01 0  0.93 0.01 0  0.94 0.01 0  0.95 0.01 0  0.96 0.01 0  0.97 0.01 0  0.98 0.01 0  0.99 0.01 0  1 0.01 0  0 0.02 0  0.01 0.02 0  0.02 0.02 0  0.03 0.02 0  0.04 0.02 0  0.05 0.02 0  0.06 0.02 0  0.07 0.02 0  0.08 0.02 0  0.09 0.02 0  0.1 0.02 0  0.11 0.02 0  0.12 0.02 0  0.13 0.02 0  0.14 0.02 0  0.15 0.02 0  0.16 0.02 0  0.17 0.02 0  0.18 0.02 0  0.19 0.02 0  0.2 0.02 0  0.21 0.02 0  0.22 0.02 0  0.23 0.02 0  0.24 0.02 0  0.25 0.02 0  0.26 0.02 0  0.27 0.02 0  0.28 0.02 0  0.29 0.02 0  0.3 0.02 0  0.31 0.02 0  0.32 0.02 0  0.33 0.02 0  0.34 0.02 0  0.35 0.02 0  0.36 0.02 0  0.37 0.02 0  0.38 0.02 0  0.39 0.02 0  0.4 0.02 0  0.41 0.02 0  0.42 0.02 0  0.43 0.02 0  0.44 0.02 0  0.45 0.02 0  0.46 0.02 0  0.47 0.02 0  0.48 0.02 0  0.49 0.02 0  0.5 0.02 0  0.51 0.02 0  0.52 0.02 0  0.53 0.02 0  0.54 0.02 0  0.55 0.02 0  0.56 0.02 0  0.57 0.02 0  0.58 0.02 0  0.59 0.02 0  0.6 0.02 0  0.61 0.02 0  0.62 0.02 0  0.63 0.02 0  0.64 0.02 0  0.65 0.02 0  0.66 0.02 0  0.67 0.02 0  0.68 0.02 0  0.69 0.02 0  0.7 0.02 0  0.71 0.02 0  0.72 0.02 0  0.73 0.02 0  0.74 0.02 0  0.75 0.02 0  0.76 0.02 0  0.77 0.02 0  0.78 0.02 0  0.79 0.02 0  0.8 0.02 0  0.81 0.02 0  0.82 0.02 0  0.83 0.02 0  0.84 0.02 0  0.85 0.02 0  0.86 0.02 0  0.87 0.02 0  0.88 0.02 0  0.89 0.02 0  0.9 0.02 0  0.91 0.02 0  0.92 0.02 0  0.93 0.02 0  0.94 0.02 0  0.95 0.02 0  0.96 0.02 0  0.97 0.02 0  0.98 0.02 0  0.99 0.02 0  1 0.02 0  0 0.03 0  0.01 0.03 0  0.02 0.03 0  0.03 0.03 0  0.04 0.03 0  0.05 0.03 0  0.06 0.03 0  0.07 0.03 0  0.08 0.03 0  0.09 0.03 0  0.1 0.03 0  0.11 0.03 0  0.12 0.03 0  0.13 0.03 0  0.14 0.03 0  0.15 0.03 0  0.16 0.03 0  0.17 0.03 0  0.18 0.03 0  0.19 0.03 0  0.2 0.03 0  0.21 0.03 0  0.22 0.03 0  0.23 0.03 0  0.24 0.03 0  0.25 0.03 0  0.26 0.03 0  0.27 0.03 0  0.28 0.03 0  0.29 0.03 0  0.3 0.03 0  0.31 0.03 0  0.32 0.03 0  0.33 0.03 0  0.34 0.03 0  0.35 0.03 0  0.36 0.03 0  0.37 0.03 0  0.38 0.03 0  0.39 0.03 0  0.4 0.03 0  0.41 0.03 0  0.42 0.03 0  0.43 0.03 0  0.44 0.03 0  0.45 0.03 0  0.46 0.03 0  0.47 0.03 0  0.48 0.03 0  0.49 0.03 0  0.5 0.03 0  0.51 0.03 0  0.52 0.03 0  0.53 0.03 0  0.54 0.03 0  0.55 0.03 0  0.56 0.03 0  0.57 0.03 0  0.58 0.03 0  0.59 0.03 0  0.6 0.03 0  0.61 0.03 0  0.62 0.03 0  0.63 0.03 0  0.64 0.03 0  0.65 0.03 0  0.66 0.03 0  0.67 0.03 0  0.68 0.03 0  0.69 0.03 0  0.7 0.03 0  0.71 0.03 0  0.72 0.03 0  0.73 0.03 0  0.74 0.03 0  0.75 0.03 0  0.76 0.03 0  0.77 0.03 0  0.78 0.03 0  0.79 0.03 0  0.8 0.03 0  0.81 0.03 0  0.82 0.03 0  0.83 0.03 0  0.84 0.03 0  0.85 0.03 0  0.86 0.03 0  0.87 0.03 0  0.88 0.03 0  0.89 0.03 0  0.9 0.03 0  0.91 0.03 0  0.92 0.03 0  0.93 0.03 0  0.94 0.03 0  0.95 0.03 0  0.96 0.03 0  0.97 0.03 0  0.98 0.03 0  0.99 0.03 0  1 0.03 0  0 0.04 0  0.01 0.04 0  0.02 0.04 0  0.03 0.04 0  0.04 0.04 0  0.05 0.04 0  0.06 0.04 0  0.07 0.04 0  0.08 0.04 0  0.09 0.04 0  0.1 0.04 0  0.11 0.04 0  0.12 0.04 0  0.13 0.04 0  0.14 0.04 0  0.15 0.04 0  0.16 0.04 0  0.17 0.04 0  0.18 0.04 0  0.19 0.04 0  0.2 0.04 0  0.21 0.04 0  0.22 0.04 0  0.23 0.04 0  0.24 0.04 0  0.25 0.04 0  0.26 0.04 0  0.27 0.04 0  0.28 0.04 0  0.29 0.04 0  0.3 0.04 0  0.31 0.04 0  0.32 0.04 0  0.33 0.04 0  0.34 0.04 0  0.35 0.04 0  0.36 0.04 0  0.37 0.04 0  0.38 0.04 0  0.39 0.04 0  0.4 0.04 0  0.41 0.04 0  0.42 0.04 0  0.43 0.04 0  0.44 0.04 0  0.45 0.04 0  0.46 0.04 0  0.47 0.04 0  0.48 0.04 0  0.49 0.04 0  0.5 0.04 0  0.51 0.04 0  0.52 0.04 0  0.53 0.04 0  0.54 0.04 0  0.55 0.04 0  0.56 0.04 0  0.57 0.04 0  0.58 0.04 0  0.59 0.04 0  0.6 0.04 0  0.61 0.04 0  0.62 0.04 0  0.63 0.04 0  0.64 0.04 0  0.65 0.04 0  0.66 0.04 0  0.67 0.04 0  0.68 0.04 0  0.69 0.04 0  0.7 0.04 0  0.71 0.04 0  0.72 0.04 0  0.73 0.04 0  0.74 0.04 0  0.75 0.04 0  0.76 0.04 0  0.77 0.04 0  0.78 0.04 0  0.79 0.04 0  0.8 0.04 0  0.81 0.04 0  0.82 0.04 0  0.83 0.04 0  0.84 0.04 0  0.85 0.04 0  0.86 0.04 0  0.87 0.04 0  0.88 0.04 0  0.89 0.04 0  0.9 0.04 0  0.91 0.04 0  0.92 0.04 0  0.93 0.04 0  0.94 0.04 0  0.95 0.04 0  0.96 0.04 0  0.97 0.04 0  0.98 0.04 0  0.99 0.04 0  1 0.04 0  0 0.05 0  0.01 0.05 0  0.02 0.05 0  0.03 0.05 0  0.04 0.05 0  0.05 0.05 0  0.06 0.05 0  0.07 0.05 0  0.08 0.05 0  0.09 0.05 0  0.1 0.05 0  0.11 0.05 0  0.12 0.05 0  0.13 0.05 0  0.14 0.05 0  0.15 0.05 0  0.16 0.05 0  0.17 0.05 0  0.18 0.05 0  0.19 0.05 0  0.2 0.05 0  0.21 0.05 0  0.22 0.05 0  0.23 0.05 0  0.24 0.05 0  0.25 0.05 0  0.26 0.05 0  0.27 0.05 0  0.28 0.05 0  0.29 0.05 0  0.3 0.05 0  0.31 0.05 0  0.32 0.05 0  0.33 0.05 0  0.34 0.05 0  0.35 0.05 0  0.36 0.05 0  0.37 0.05 0  0.38 0.05 0  0.39 0.05 0  0.4 0.05 0  0.41 0.05 0  0.42 0.05 0  0.43 0.05 0  0.44 0.05 0  0.45 0.05 0  0.46 0.05 0  0.47 0.05 0  0.48 0.05 0  0.49 0.05 0  0.5 0.05 0  0.51 0.05 0  0.52 0.05 0  0.53 0.05 0  0.54 0.05 0  0.55 0.05 0  0.56 0.05 0  0.57 0.05 0  0.58 0.05 0  0.59 0.05 0  0.6 0.05 0  0.61 0.05 0  0.62 0.05 0  0.63 0.05 0  0.64 0.05 0  0.65 0.05 0  0.66 0.05 0  0.67 0.05 0  0.68 0.05 0  0.69 0.05 0  0.7 0.05 0  0.71 0.05 0  0.72 0.05 0  0.73 0.05 0  0.74 0.05 0  0.75 0.05 0  0.76 0.05 0  0.77 0.05 0  0.78 0.05 0  0.79 0.05 0  0.8 0.05 0  0.81 0.05 0  0.82 0.05 0  0.83 0.05 0  0.84 0.05 0  0.85 0.05 0  0.86 0.05 0  0.87 0.05 0  0.88 0.05 0  0.89 0.05 0  0.9 0.05 0  0.91 0.05 0  0.92 0.05 0  0.93 0.05 0  0.94 0.05 0  0.95 0.05 0  0.96 0.05 0  0.97 0.05 0  0.98 0.05 0  0.99 0.05 0  1 0.05 0  0 0.06 0  0.01 0.06 0  0.02 0.06 0  0.03 0.06 0  0.04 0.06 0  0.05 0.06 0  0.06 0.06 0  0.07 0.06 0  0.08 0.06 0  0.09 0.06 0  0.1 0.06 0  0.11 0.06 0  0.12 0.06 0  0.13 0.06 0  0.14 0.06 0  0.15 0.06 0  0.16 0.06 0  0.17 0.06 0  0.18 0.06 0  0.19 0.06 0  0.2 0.06 0  0.21 0.06 0  0.22 0.06 0  0.23 0.06 0  0.24 0.06 0  0.25 0.06 0  0.26 0.06 0  0.27 0.06 0  0.28 0.06 0  0.29 0.06 0  0.3 0.06 0  0.31 0.06 0  0.32 0.06 0  0.33 0.06 0  0.34 0.06 0  0.35 0.06 0  0.36 0.06 0  0.37 0.06 0  0.38 0.06 0  0.39 0.06 0  0.4 0.06 0  0.41 0.06 0  0.42 0.06 0  0.43 0.06 0  0.44 0.06 0  0.45 0.06 0  0.46 0.06 0  0.47 0.06 0  0.48 0.06 0  0.49 0.06 0  0.5 0.06 0  0.51 0.06 0  0.52 0.06 0  0.53 0.06 0  0.54 0.06 0  0.55 0.06 0  0.56 0.06 0  0.57 0.06 0  0.58 0.06 0  0.59 0.06 0  0.6 0.06 0  0.61 0.06 0  0.62 0.06 0  0.63 0.06 0  0.64 0.06 0  0.65 0.06 0  0.66 0.06 0  0.67 0.06 0  0.68 0.06 0  0.69 0.06 0  0.7 0.06 0  0.71 0.06 0  0.72 0.06 0  0.73 0.06 0  0.74 0.06 0  0.75 0.06 0  0.76 0.06 0  0.77 0.06 0  0.78 0.06 0  0.79 0.06 0  0.8 0.06 0  0.81 0.06 0  0.82 0.06 0  0.83 0.06 0  0.84 0.06 0  0.85 0.06 0  0.86 0.06 0  0.87 0.06 0  0.88 0.06 0  0.89 0.06 0  0.9 0.06 0  0.91 0.06 0  0.92 0.06 0  0.93 0.06 0  0.94 0.06 0  0.95 0.06 0  0.96 0.06 0  0.97 0.06 0  0.98 0.06 0  0.99 0.06 0  1 0.06 0  0 0.07 0  0.01 0.07 0  0.02 0.07 0  0.03 0.07 0  0.04 0.07 0  0.05 0.07 0  0.06 0.07 0  0.07 0.07 0  0.08 0.07 0  0.09 0.07 0  0.1 0.07 0  0.11 0.07 0  0.12 0.07 0  0.13 0.07 0  0.14 0.07 0  0.15 0.07 0  0.16 0.07 0  0.17 0.07 0  0.18 0.07 0  0.19 0.07 0  0.2 0.07 0  0.21 0.07 0  0.22 0.07 0  0.23 0.07 0  0.24 0.07 0  0.25 0.07 0  0.26 0.07 0  0.27 0.07 0  0.28 0.07 0  0.29 0.07 0  0.3 0.07 0  0.31 0.07 0  0.32 0.07 0  0.33 0.07 0  0.34 0.07 0  0.35 0.07 0  0.36 0.07 0  0.37 0.07 0  0.38 0.07 0  0.39 0.07 0  0.4 0.07 0  0.41 0.07 0  0.42 0.07 0  0.43 0.07 0  0.44 0.07 0  0.45 0.07 0  0.46 0.07 0  0.47 0.07 0  0.48 0.07 0  0.49 0.07 0  0.5 0.07 0  0.51 0.07 0  0.52 0.07 0  0.53 0.07 0  0.54 0.07 0  0.55 0.07 0  0.56 0.07 0  0.57 0.07 0  0.58 0.07 0  0.59 0.07 0  0.6 0.07 0  0.61 0.07 0  0.62 0.07 0  0.63 0.07 0  0.64 0.07 0  0.65 0.07 0  0.66 0.07 0  0.67 0.07 0  0.68 0.07 0  0.69 0.07 0  0.7 0.07 0  0.71 0.07 0  0.72 0.07 0  0.73 0.07 0  0.74 0.07 0  0.75 0.07 0  0.76 0.07 0  0.77
[...]
<PointData  Vectors="u"> 
<DataArray  type="Float32"  Name="u"  NumberOfComponents="3" format="ascii">0.000000e+00 0.000000e+00 0.000000e+00  0.000000e+00 0.000000e+00 0.000000e+00  0.000000e+00 0.000000e+00 0.000000e+00  0.000000e+00 0.000000e+00 0.000000e+00  0.000000e+00 0.000000e+00 0.000000e+00  0.000000e+00 0.000000e+00 0.000000e+00  0.000000e+00 0.000000e+00 0.000000e+00  0.000000e+00 0.000000e+00 0.000000e+00  0.000000e+00 0.000000e+00 0.000000e+00  0.000000e+00 0.000000e+00 0.000000e+00  0.000000e+00 0.000000e+00 0.000000e+00  0.000000e+00 0.000000e+00 0.000000e+00  0.000000e+00 0.000000e+00 0.000000e+00  0.000000e+00 0.000000e+00 0.000000e+00  0.000000e+00 0.000000e+00 0.000000e+00  0.000000e+00 0.000000e+00 0.000000e+00  0.000000e+00 0.000000e+00 0.000000e+00  0.000000e+00 0.000000e+00 0.000000e+00  0.000000e+00 0.000000e+00 0.000000e+00  0.000000e+00 0.000000e+00 0.000000e+00  0.000000e+00 0.000000e+00 0.000000e+00  0.000000e+00 0.000000e+00 0.000000e+00  0.000000e+00 0.000000e+00 0.000000e+00  0.000000e+00 0.000000e+00 0.000000e+00  0.000000e+00 0.000000e+00 0.000000e+00  0.000000e+00 0.000000e+00 0.000000e+00  0.000000e+00 0.000000e+00 0.000000e+00  0.000000e+00 0.000000e+00 0.000000e+00  0.000000e+00 0.000000e+00 0.000000e+00  0.000000e+00 0.000000e+00 0.000000e+00  0.000000e+00 0.000000e+00 0.000000e+00  0.000000e+00 0.000000e+00 0.000000e+00  0.000000e+00 0.000000e+00 0.000000e+00  0.000000e+00 0.000000e+00 0.000000e+00  0.000000e+00 0.000000e+00 0.000000e+00  0.000000e+00 0.000000e+00 0.000000e+00  0.000000e+00 0.000000e+00 0.000000e+00  0.000000e+00 0.000000e+00 0.000000e+00  0.000000e+00 0.000000e+00 0.000000e+00  0.000000e+00 0.000000e+00 0.000000e+00  0.000000e+00 0.000000e+00 0.000000e+00  0.000000e+00 0.000000e+00 0.000000e+00  0.000000e+00 0.000000e+00 0.000000e+00  0.000000e+00 0.000000e+00 0.000000e+00  0.000000e+00 0.000000e+00 0.000000e+00  0.000000e+00 0.000000e+00 0.000000e+00  0.000000e+00 0.000000e+00 0.000000e+00  0.000000e+00 0.000000e+00 0.000000e+00  0.000000e+00 0.000000e+00 0.000000e+00  0.000000e+00 0.000000e+00 0.000000e+00  0.000000e+00 0.000000e+00 0.000000e+00  0.000000e+00 0.000000e+00 0.000000e+00  0.000000e+00 0.000000e+00 0.000000e+00  0.000000e+00 0.000000e+00 0.000000e+00  0.000000e+00 0.000000e+00 0.000000e+00  0.000000e+00 0.000000e+00 0.000000e+00  0.000000e+00 0.000000e+00 0.000000e+00  0.000000e+00 0.000000e+00 0.000000e+00  0.000000e+00 0.000000e+00 0.000000e+00  0.000000e+00 0.000000e+00 0.000000e+00  0.000000e+00 0.000000e+00 0.000000e+00  0.000000e+00 0.000000e+00 0.000000e+00  0.000000e+00 0.000000e+00 0.000000e+00  0.000000e+00 0.000000e+00 0.000000e+00  0.000000e+00 0.000000e+00 0.000000e+00  0.000000e+00 0.000000e+00 0.000000e+00  0.000000e+00 0.000000e+00 0.000000e+00  0.000000e+00 0.000000e+00 0.000000e+00  0.000000e+00 0.000000e+00 0.000000e+00  0.000000e+00 0.000000e+00 0.000000e+00  0.000000e+00 0.000000e+00 0.000000e+00  0.000000e+00 0.000000e+00 0.000000e+00  0.000000e+00 0.000000e+00 0.000000e+00  0.000000e+00 0.000000e+00 0.000000e+00  0.000000e+00 0.000000e+00 0.000000e+00  0.000000e+00 0.000000e+00 0.000000e+00  0.000000e+00 0.000000e+00 0.000000e+00  0.000000e+00 0.000000e+00 0.000000e+00  0.000000e+00 0.000000e+00 0.000000e+00  0.000000e+00 0.000000e+00 0.000000e+00  0.000000e+00 0.000000e+00 0.000000e+00  0.000000e+00 0.000000e+00 0.000000e+00  0.000000e+00 0.000000e+00 0.000000e+00  0.000000e+00 0.000000e+00 0.000000e+00  0.000000e+00 0.000000e+00 0.000000e+00  0.000000e+00 0.000000e+00 0.000000e+00  0.000000e+00 0.000000e+00 0.000000e+00  0.000000e+00 0.000000e+00 0.000000e+00  0.000000e+00 0.000000e+00 0.000000e+00  0.000000e+00 0.000000e+00 0.000000e+00  0.000000e+00 0.000000e+00 0.000000e+00  0.000000e+00 0.000000e+00 0.000000e+00  0.000000e+00 0.000000e+00 0.000000e+00  0.000000e+00 0.000000e+00 0.000000e+00  0.000000e+00 0.000000e+00 0.000000e+00  0.000000e+00 0.000000e+00 0.000000e+00  0.000000e+00 0.000000e+00 0.000000e+00  0.000000e+00 0.000000e+00 0.000000e+00  0.000000e+00 0.000000e+00 0.000000e+00  0.000000e+00 0.000000e+00 0.000000e+00  0.000000e+00 0.000000e+00 0.000000e+00  9.900000e-03 0.000000e+00 0.000000e+00  9.900000e-03 0.000000e+00 0.000000e+00  9.900000e-03 3.463545e-16 0.000000e+00  9.900000e-03 4.975646e-16 0.000000e+00  9.900000e-03 6.037457e-16 0.000000e+00  9.900000e-03 6.794526e-16 0.000000e+00  9.900000e-03 7.274544e-16 0.000000e+00  9.900000e-03 7.547141e-16 0.000000e+00  9.900000e-03 7.670441e-16 0.000000e+00  9.900000e-03 7.791729e-16 0.000000e+00  9.900000e-03 7.606693e-16 0.000000e+00  9.900000e-03 7.458653e-16 0.000000e+00  9.900000e-03 6.948019e-16 0.000000e+00  9.900000e-03 7.057654e-16 0.000000e+00  9.900000e-03 6.711903e-16 0.000000e+00  9.900000e-03 6.299591e-16 0.000000e+00  9.900000e-03 5.795966e-16 0.000000e+00  9.900000e-03 5.372202e-16 0.000000e+00  9.900000e-03 5.034362e-16 0.000000e+00  9.900000e-03 4.699102e-16 0.000000e+00  9.900000e-03 4.353760e-16 0.000000e+00  9.900000e-03 4.039281e-16 0.000000e+00  9.900000e-03 3.702838e-16 0.000000e+00  9.900000e-03 3.365020e-16 0.000000e+00  9.900000e-03 3.221678e-16 0.000000e+00  9.900000e-03 3.039791e-16 0.000000e+00  9.900000e-03 0.000000e+00 0.000000e+00  9.900000e-03 0.000000e+00 0.000000e+00  9.900000e-03 0.000000e+00 0.000000e+00  9.900000e-03 0.000000e+00 0.000000e+00  9.900000e-03 0.000000e+00 0.000000e+00  9.900000e-03 0.000000e+00 0.000000e+00  9.900000e-03 0.000000e+00 0.000000e+00  9.900000e-03 0.000000e+00 0.000000e+00  9.900000e-03 0.000000e+00 0.000000e+00  9.900000e-03 0.000000e+00 0.000000e+00  9.900000e-03 0.000000e+00 0.000000e+00  9.900000e-03 0.000000e+00 0.000000e+00  9.900000e-03 0.000000e+00 0.000000e+00  9.900000e-03 0.000000e+00 0.000000e+00  9.900000e-03 0.000000e+00 0.000000e+00  9.900000e-03 0.000000e+00 0.000000e+00  9.900000e-03 0.000000e+00 0.000000e+00  9.900000e-03 0.000000e+00 0.000000e+00  9.900000e-03 0.000000e+00 0.000000e+00  9.900000e-03 0.000000e+00 0.000000e+00  9.900000e-03 0.000000e+00 0.000000e+00  9.900000e-03 0.000000e+00 0.000000e+00  9.900000e-03 0.000000e+00 0.000000e+00  9.900000e-03 0.000000e+00 0.000000e+00  9.900000e-03 0.000000e+00 0.000000e+00  9.900000e-03 0.000000e+00 0.000000e+00  9.900000e-03 0.000000e+00 0.000000e+00  9.900000e-03 0.000000e+00 0.000000e+00  9.900000e-03 0.000000e+00 0.000000e+00  9.900000e-03 0.000000e+00 0.000000e+00  9.900000e-03 0.000000e+00 0.000000e+00  9.900000e-03 0.000000e+00 0.000000e+00  9.900000e-03 0.000000e+00 0.000000e+00  9.900000e-03 0.000000e+00 0.000000e+00  9.900000e-03 0.000000e+00 0.000000e+00  9.900000e-03 0.000000e+00 0.000000e+00  9.900000e-03 0.000000e+00 0.000000e+00  9.900000e-03 0.000000e+00 0.000000e+00  9.900000e-03 0.000000e+00 0.000000e+00  9.900000e-03 0.000000e+00 0.000000e+00  9.900000e-03 0.000000e+00 0.000000e+00  9.900000e-03 0.000000e+00 0.000000e+00  9.900000e-03 0.000000e+00 0.000000e+00  9.900000e-03 0.000000e+00 0.000000e+00  9.900000e-03 0.000000e+00 0.000000e+00  9.900000e-03 0.000000e+00 0.000000e+00  9.900000e-03 0.000000e+00 0.000000e+00  9.900000e-03 0.000000e+00 0.000000e+00  9.900000e-03 0.000000e+00 0.000000e+00  9.900000e-03 0.000000e+00 0.000000e+00  9.900000e-03 0.000000e+00 0.000000e+00  9.900000e-03 0.000000e+00 0.000000e+00  9.900000e-03 0.000000e+00 0.000000e+00  9.900000e-03 0.000000e+00 0.000000e+00  9.900000e-03 0.000000e+00 0.000000e+00  9.900000e-03 0.000000e+00 0.000000e+00  9.900000e-03 0.000000e+00 0.000000e+00  9.900000e-03 0.000000e+00 0.000000e+00  9.900000e-03 0.000000e+00 0.000000e+00  9.900000e-03 0.000000e+00 0.000000e+00  9.900000e-03 0.000000e+00 0.000000e+00  9.900000e-03 0.000000e+00 0.000000e+00  9.900000e-03 0.000000e+00 0.000000e+00  9.900000e-03 0.000000e+00 0.000000e+00  9.900000e-03 0.000000e+00 0.000000e+00  9.900000e-03 0.000000e+00 0.000000e+00  9.900000e-03 0.000000e+00 0.000000e+00  9.900000e-03 0.000000e+00 0.000000e+00  9.900000e-03 0.000000e+00 0.000000e+00  9.900000e-03 0.000000e+00 0.000000e+00  9.900000e-03 0.000000e+00 0.000000e+00  9.900000e-03 0.000000e+00 0.000000e+00  9.900000e-03 0.000000e+00 0.000000e+00  9.900000e-03 0.000000e+00 0.000000e+00  9.900000e-03 0.000000e+00 0.000000e+00  1.960000e-02 0.000000e+00 0.000000e+00  1.960000e-02 6.421750e-16 0.000000e+00  1.960000e-02 1.304049e-15 0.000000e+00  1.960000e-02 1.837404e-15 0.000000e+00  1.960000e-02 2.228592e-15 0.000000e+00  1.960000e-02 2.507586e-15 0.000000e+00  1.960000e-02 2.704707e-15 0.000000e+00  1.960000e-02 2.831089e-15 0.000000e+00  1.960000e-02 2.898355e-15 0.000000e+00  1.960000e-02 2.919475e-15 0.000000e+00  1.960000e-02 2.875549e-15 0.000000e+00  1.960000e-02 2.809781e-15 0.000000e+00  1.960000e-02 2.732741e-15 0.000000e+00  1.960000e-02 2.648857e-15 0.000000e+00  1.960000e-02 2.534623e-15 0.000000e+00  1.960000e-02 2.364859e-15 0.000000e+00  1.960000e-02 2.210044e-15 0.000000e+00  1.960000e-02 2.069455e-15 0.000000e+00  1.960000e-02 1.940560e-15 0.000000e+00  1.960000e-02 1.811752e-15 0.000000e+00  1.960000e-02 1.693662e-15 0.000000e+00  1.960000e-02 1.580981e-15 0.000000e+00  1.960000e-02 1.457718e-15 0.000000e+00  1.960000e-02 1.335491e-15 0.000000e+00  1.960000e-02 1.270833e-15 0.000000e+00  1.960000e-02 1.193166e-15 0.000000e+00  1.960000e-02 1.119080e-15 0.000000e+00  1.960000e-02 1.059171e-15 0.000000e+00  1.960000e-02 1.006415e-15 0.000000e+00  1.960000e-02 9.595232e-16 0.000000e+00  1.960000e-02 9.056169e-16 0.000000e+00  1.960000e-02 8.535152e-16 0.000000e+00  1.960000e-02 8.075741e-16 0.000000e+00  1.960000e-02 8.001153e-16 0.000000e+00  1.960000e-02 7.890560e-16 0.000000e+00  1.960000e-02 7.788420e-16 0.000000e+00  1.960000e-02 7.525592e-16 0.000000e+00  1.960000e-02 7.207832e-16 0.000000e+00  1.960000e-02 6.848505e-16 0.000000e+00  1.960000e-02 6.483119e-16 0.000000e+00  1.960000e-02 6.122022e-16 0.000000e+00  1.960000e-02 5.783115e-16 0.000000e+00  1.960000e-02 5.385213e-16 0.000000e+00  1.960000e-02 5.096604e-16 0.000000e+00  1.960000e-02 4.980201e-16 0.000000e+00  1.960000e-02 4.947489e-16 0.000000e+00  1.960000e-02 4.622871e-16 0.000000e+00  1.960000e-02 4.345566e-16 0.000000e+00  1.960000e-02 4.149451e-16 0.000000e+00  1.960000e-02 3.891686e-16 0.000000e+00  1.960000e-02 3.694245e-16 0.000000e+00  1.960000e-02 3.381322e-16 0.000000e+00  1.960000e-02 3.063028e-16 0.000000e+00  1.960000e-02 0.000000e+00 0.000000e+00  1.960000e-02 0.000000e+00 0.000000e+00  1.960000e-02 0.000000e+00 0.000000e+00  1.960000e-02 0.000000e+00 0.000000e+00  1.960000e-02 0.000000e+00 0.000000e+00  1.960000e-02 0.000000e+00 0.000000e+00  1.960000e-02 0.000000e+00 0.000000e+00  1.960000e-02 0.000000e+00 0.000000e+00  1.960000e-02 0.000000e+00 0.000000e+00  1.960000e-02 0.000000e+00 0.000000e+00  1.960000e-02 0.000000e+00 0.000000e+00  1.960000e-02 0.000000e+00 0.000000e+00  1.960000e-02 0.000000e+00 0.000000e+00  1.960000e-02 0.000000e+00 0.000000e+00  1.960000e-02 0.000000e+00 0.000000e+00  1.960000e-02 0.000000e+00 0.000000e+00  1.960000e-02 0.000000e+00 0.000000e+00  1.960000e-02 0.000000e+00 0.000000e+00  1.960000e-02 0.000000e+00 0.000000e+00  1.960000e-02 0.000000e+00 0.000000e+00  1.960000e-02 0.000000e+00 0.000000e+00  1.960000e-02 0.000000e+00 0.000000e+00  1.960000e-02 0.000000e+00 0.000000e+00  1.960000e-02 0.000000e+00 0.000000e+00  1.960000e-02 0.000000e+00 0.000000e+00  1.960000e-02 0.000000e+00 0.000000e+00  1.960000e-02 0.000000e+00 0.000000e+00  1.960000e-02 0.000000e+00 0.000000e+00  1.960000e-02 0.000000e+00 0.000000e+00  1.960000e-02 0.000000e+00 0.000000e+00  1.960000e-02 0.000000e+00 0.000000e+00  1.960000e-02 0.000000e+00 0.000000e+00  1.960000e-02 0.000000e+00 0.000000e+00  1.960000e-02 0.000000e+00 0.000000e+00  1.960000e-02 0.000000e+00 0.000000e+00  1.960000e-02 0.000000e+00 0.000000e+00  1.960000e-02 0.000000e+00 0.000000e+00  1.960000e-02 0.000000e+00 0.000000e+00  1.960000e-02 0.000000e+00 0.000000e+00  1.960000e-02 0.000000e+00 0.000000e+00  1.960000e-02 0.000000e+00 0.000000e+00  1.960000e-02 0.000000e+00 0.000000e+00  1.960000e-02 0.000000e+00 0.000000e+00  1.960000e-02 0.000000e+00 0.000000e+00  1.960000e-02 0.000000e+00 0.000000e+00  1.960000e-02 0.000000e+00 0.000000e+00  1.960000e-02 0.000000e+00 0.000000e+00  1.960000e-02 0.000000e+00 0.000000e+00  2.910000e-02 0.000000e+00 0.000000e+00  2.910000e-02 1.460771e-15 0.000000e+00  2.910000e-02 2.777632e-15 0.000000e+00  2.910000e-02 3.847069e-15 0.000000e+00  2.910000e-02 4.662678e-15 0.000000e+00  2.910000e-02 5.261714e-15 0.000000e+00  2.910000e-02 5.680207e-15 0.000000e+00  2.910000e-02 5.968614e-15 0.000000e+00  2.910000e-02 6.123617e-15 0.000000e+00  2.910000e-02 6.174159e-15 0.000000e+00  2.910000e-02 6.111056e-15 0.000000e+00  2.910000e-02 5.987098e-15 0.000000e+00  2.910000e-02 5.790119e-15 0.000000e+00  2.910000e-02 5.547630e-15 0.000000e+00  2.910000e-02 5.321292e-15 0.000000e+00  2.910000e-02 5.029861e-15 0.000000e+00  2.910000e-02 4.742344e-15 0.000000e+00  2.910000e-02 4.464370e-15 0.000000e+00  2.910000e-02 4.196266e-15 0.000000e+00  2.910000e-02 3.929994e-15 0.000000e+00  2.910000e-02 3.685117e-15 0.000000e+00  2.910000e-02 3.443127e-15 0.000000e+00  2.910000e-02 3.189396e-15 0.000000e+00  2.910000e-02 2.963984e-15 0.000000e+00  2.910000e-02 2.778464e-15 0.000000e+00  2.910000e-02 2.620217e-15 0.000000e+00  2.910000e-02 2.472363e-15 0.000000e+00  2.910000e-02 2.339801e-15 0.000000e+00  2.910000e-02 2.225687e-15 0.000000e+00  2.910000e-02 2.122972e-15 0.000000e+00  2.910000e-02 2.028569e-15 0.000000e+00  2.910000e-02 1.923754e-15 0.000000e+00  2.910000e-02 1.818425e-15 0.000000e+00  2.910000e-02 1.714850e-15 0.000000e+00  2.910000e-02 1.724887e-15 0.000000e+00  2.910000e-02 1.722615e-15 0.000000e+00  2.910000e-02 1.651879e-15 0.000000e+00  2.910000e-02 1.573315e-15 0.000000e+00  2.910000e-02 1.493579e-15 0.000000e+00  2.910000e-02 1.407354e-15 0.000000e+00  2.910000e-02 1.328295e-15 0.000000e+00  2.910000e-02 1.269379e-15 0.000000e+00  2.910000e-02 1.219923e-15 0.000000e+00  2.910000e-02 1.168246e-15 0.000000e+00  2.910000e-02 1.107649e-15 0.000000e+00  2.910000e-02 1.050800e-15 0.000000e+00  2.910000e-02 9.895296e-16 0.000000e+00  2.910000e-02 9.355230e-16 0.000000e+00  2.910000e-02 9.037130e-16 0.000000e+00  2.910000e-02 8.567432e-16 0.000000e+00  2.910000e-02 8.000709e-16 0.000000e+00  2.910000e-02 7.463070e-16 0.000000e+00  2.910000e-02 6.944449e-16 0.000000e+00  2.910000e-02 6.415997e-16 0.000000e+00  2.910000e-02 6.157431e-16 0.000000e+00  2.910000e-02 6.290742e-16 0.000000e+00  2.910000e-02 5.776200e-16 0.000000e+00  2.910000e-02 5.063882e-16 0.000000e+00  2.910000e-02 4.465473e-16 0.000000e+00  2.910000e-02 3.804497e-16 0.000000e+00  2.910000e-02 3.150950e-16 0.000000e+00  2.910000e-02 0.000000e+00 0.000000e+00  2.910000e-02 0.000000e+00 0.000000e+00  2.910000e-02 0.000000e+00 0.000000e+00  2.910000e-02 0.000000e+00 0.000000e+00  2.910000e-02 0.000000e+00 0.000000e+00  2.910000e-02 0.000000e+00 0.000000e+00  2.910000e-02 0.000000e+00 0.000000e+00  2.910000e-02 0.000000e+00 0.000000e+00  2.910000e-02 0.000000e+00 0.000000e+00  2.910000e-02 0.000000e+00 0.000000e+00  2.910000e-02 0.000000e+00 0.000000e+00  2.910000e-02 0.000000e+00 0.000000e+00  2.910000e-02 0.000000e+00 0.000000e+00  2.910000e-02 0.000000e+00 0.000000e+00  2.910000e-02 0.000000e+00 0.000000e+00  2.910000e-02 0.000000e+00 0.000000e+00  2.910000e-02 0.000000e+00 0.000000e+00  2.910000e-02 0.000000e+00 0.000000e+00  2.910000e-02 0.000000e+00 0.000000e+00  2.910000e-02 0.000000e+00 0.000000e+00  2.910000e-02 0.000000e+00 0.000000e+00  2.910000e-02 0.000000e+00 0.000000e+00  2.910000e-02 0.000000e+00 0.000000e+00  2.910000e-02 0.000000e+00 0.000000e+00  2.910000e-02 0.000000e+00 0.000000e+00  2.910000e-02 0.000000e+00 0.000000e+00  2.910000e-02 0.000000e+00 0.000000e+00  2.910000e-02 0.000000e+00 0.000000e+00  2.910000e-02 0.000000e+00 0.000000e+00  2.910000e-02 0.000000e+00 0.000000e+00  2.910000e-02 0.000000e+00 0.000000e+00  2.910000e-02 0.000000e+00 0.000000e+00  2.910000e-02 0.000000e+00 0.000000e+00  2.910000e-02 0.000000e+00 0.000000e+00  2.910000e-02 0.000000e+00 0.000000e+00  2.910000e-02 0.000000e+00 0.000000e+00  2.910000e-02 0.000000e+00 0.000000e+00  2.910000e-02 0.000000e+00 0.000000e+00  2.910000e-02 3.096166e-16 0.000000e+00  2.910000e-02 3.313318e-16 0.000000e+00  3.840000e-02 0.000000e+00 0.000000e+00  3.840000e-02 2.500224e-15 0.000000e+00  3.840000e-02 4.645959e-15 0.000000e+00  3.840000e-02 6.390967e-15 0.000000e+00  3.840000e-02 7.730158e-15 0.000000e+00  3.840000e-02 8.734266e-15 0.000000e+00  3.840000e-02 9.448476e-15 0.000000e+00  3.840000e-02 9.930294e-15 0.000000e+00  3.840000e-02 1.019716e-14 0.000000e+00  3.840000e-02 1.030597e-14 0.000000e+00  3.840000e-02 1.025450e-14 0.000000e+00  3.840000e-02 1.005658e-14 0.000000e+00  3.840000e-02 9.741460e-15 0.000000e+00  3.840000e-02 9.305924e-15 0.000000e+00  3.840000e-02 8.932797e-15 0.000000e+00  3.840000e-02 8.511105e-15 0.000000e+00  3.840000e-02 8.054827e-15 0.000000e+00  3.840000e-02 7.585994e-15 0.000000e+00  3.840000e-02 7.132583e-15 0.000000e+00  3.840000e-02 6.694723e-15 0.000000e+00  3.840000e-02 6.292899e-15 0.000000e+00  3.840000e-02 5.903152e-15 0.000000e+00  3.840000e-02 5.514338e-15 0.000000e+00  3.840000e-02 5.126648e-15 0.000000e+00  3.840000e-02 4.801504e-15 0.000000e+00  3.840000e-02 4.531006e-15 0.000000e+00  3.840000e-02 4.280942e-15 0.000000e+00  3.840000e-02 4.055795e-15 0.000000e+00  3.840000e-02 3.868220e-15 0.000000e+00  3.840000e-02 3.699225e-15 0.000000e+00  3.840000e-02 3.547408e-15 0.000000e+00  3.840000e-02 3.388641e-15 0.000000e+00  3.840000e-02 3.217526e-15 0.000000e+00  3.840000e-02 3.075314e-15 0.000000e+00  3.840000e-02 2.990474e-15 0.000000e+00  3.840000e-02 2.944861e-15 0.000000e+00  3.840000e-02 2.828406e-15 0.000000e+00  3.840000e-02 2.696244e-15 0.000000e+00  3.840000e-02 2.566226e-15 0.000000e+00  3.840000e-02 2.424573e-15 0.000000e+00  3.840000e-02 2.302029e-15 0.000000e+00  3.840000e-02 2.195146e-15 0.000000e+00  3.840000e-02 2.123082e-15 0.000000e+00  3.840000e-02 2.066081e-15 0.000000e+00  3.840000e-02 1.963094e-15 0.000000e+00  3.840000e-02 1.820686e-15 0.000000e+00  3.840000e-02 1.708264e-15 0.000000e+00  3.840000e-02 1.613673e-15 0.000000e+00  3.840000e-02 1.545219e-15 0.000000e+00  3.840000e-02 1.471388e-15 0.000000e+00  3.840000e-02 1.381580e-15 0.000000e+00  3.840000e-02 1.298276e-15 0.000000e+00  3.840000e-02 1.220728e-15 0.000000e+00  3.840000e-02 1.160672e-15 0.000000e+00  3.840000e-02 1.122778e-15 0.000000e+00  3.840000e-02 1.071321e-15 0.000000e+00  3.840000e-02 9.985829e-16 0.000000e+00  3.840000e-02 8.877262e-16 0.000000e+00  3.840000e-02 7.783269e-16 0.000000e+00  3.840000e-02 6.641483e-16 0.000000e+00  3.840000e-02 5.687275e-16 0.000000e+00  3.840000e-02 4.940371e-16 0.000000e+00  3.840000e-02 4.374274e-16 0.000000e+00  3.840000e-02 4.269938e-16 0.000000e+00  3.840000e-02 4.119612e-16 0.000000e+00  3.840000e-02 3.547352e-16 0.000000e+00  3.840000e-02 3.124380e-16 0.000000e+00  3.840000e-02 0.000000e+00 0.000000e+00  3.840000e-02 0.000000e+00 0.000000e+00  3.840000e-02 0.000000e+00 0.000000e+00  3.840000e-02 0.000000e+00 0.000000e+00  3.840000e-02 0.000000e+00 0.000000e+00  3.840000e-02 0.000000e+00 0.000000e+00  3.840000e-02 0.000000e+00 0.000000e+00  3.840000e-02 0.000000e+00 0.000000e+00  3.840000e-02 0.000000e+00 0.000000e+00  3.840000e-02 0.000000e+00 0.000000e+00  3.840000e-02 0.000000e+00 0.000000e+00  3.840000e-02 0.000000e+00 0.000000e+00  3.840000e-02 0.000000e+00 0.000000e+00  3.840000e-02 0.000000e+00 0.000000e+00  3.840000e-02 0.000000e+00 0.000000e+00  3.840000e-02 0.000000e+00 0.000000e+00  3.840000e-02 0.000000e+00 0.000000e+00  3.840000e-02 0.000000e+00 0.000000e+00  3.840000e-02 0.000000e+00 0.000000e+00  3.840000e-02 0.000000e+00 0.000000e+00  3.840000e-02 0.000000e+00 0.000000e+00  3.840000e-02 0.000000e+00 0.000000e+00  3.840000e-02 0.000000e+00 0.000000e+00  3.840000e-02 0.000000e+00 0.000000e+00  3.840000e-02 0.000000e+00 0.000000e+00  3.840000e-02 0.000000e+00 0.000000e+00  3.840000e-02 0.000