<?xml version="1.0"?>
<VTKFile type="UnstructuredGrid"  version="0.1"  >
<UnstructuredGrid>
<Piece  NumberOfPoints="10201" NumberOfCells="20000">
<Points>
<DataArray  type="Float32"  NumberOfComponents="3"  format="ascii">0 0 0  0.01 0 0  0.02 0 0  0.03 0 0  0.04 0 0  0.05 0 0  0.06 0 0  0.07 0 0  0.08 0 0  0.09 0 0  0.1 0 0  0.11 0 0  0.12 0 0  0.13 0 0  0.14 0 0  0.15 0 0  0.16 0 0  0.17 0 0  0.18 0 0  0.19 0 0  0.2 0 0  0.21 0 0  0.22 0 0  0.23 0 0  0.24 0 0  0.25 0 0  0.26 0 0  0.27 0 0  0.28 0 0  0.29 0 0  0.3 0 0  0.31 0 0  0.32 0 0  0.33 0 0  0.34 0 0  0.35 0 0  0.36 0 0  0.37 0 0  0.38 0 0  0.39 0 0  0.4 0 0  0.41 0 0  0.42 0 0  0.43 0 0  0.44 0 0  0.45 0 0  0.46 0 0  0.47 0 0  0.48 0 0  0.49 0 0  0.5 0 0  0.51 0 0  0.52 0 0  0.53 0 0  0.54 0 0  0.55 0 0  0.56 0 0  0.57 0 0  0.58 0 0  0.59 0 0  0.6 0 0  0.61 0 0  0.62 0 0  0.63 0 0  0.64 0 0  0.65 0 0  0.66 0 0  0.67 0 0  0.68 0 0  0.69 0 0  0.7 0 0  0.71 0 0  0.72 0 0  0.73 0 0  0.74 0 0  0.75 0 0  0.76 0 0  0.77 0 0  0.78 0 0  0.79 0 0  0.8 0 0  0.81 0 0  0.82 0 0  0.83 0 0  0.84 0 0  0.85 0 0  0.86 0 0  0.87 0 0  0.88 0 0  0.89 0 0  0.9 0 0  0.91 0 0  0.92 0 0  0.93 0 0  0.94 0 0  0.95 0 0  0.96 0 0  0.97 0 0  0.98 0 0  0.99 0 0  1 0 0  0 0.01 0  0.01 0.01 0  0.02 0.01 0  0.03 0.01 0  0.04 0.01 0  0.05 0.01 0  0.06 0.01 0  0.07 0.01 0  0.08 0.01 0  0.09 0.01 0  0.1 0.01 0  0.11 0.01 0  0.12 0.01 0  0.13 0.01 0  0.14 0.01 0  0.15 0.01 0  0.16 0.01 0  0.17 0.01 0  0.18 0.01 0  0.19 0.01 0  0.2 0.01 0  0.21 0.01 0  0.22 0.01 0  0.23 0.01 0  0.24 0.01 0  0.25 0.01 0  0.26 0.01 0  0.27 0.01 0  0.28 0.01 0  0.29 0.01 0  0.3 0.01 0  0.31 0.01 0  0.32 0.01 0  0.33 0.01 0  0.34 0.01 0  0.35 0.01 0  0.36 0.01 0  0.37 0.01 0  0.38 0.01 0  0.39 0.01 0  0.4 0.01 0  0.41 0.01 0  0.42 0.01 0  0.43 0.01 0  0.44 0.01 0  0.45 0.01 0  0.46 0.01 0  0.47 0.01 0  0.48 0.01 0  0.49 0.01 0  0.5 0.01 0  0.51 0.01 0  0.52 0.01 0  0.53 0.01 0  0.54 0.01 0  0.55 0.01 0  0.56 0.01 0  0.57 0.01 0  0.58 0.01 0  0.59 0.01 0  0.6 0.01 0  0.61 0.01 0  0.62 0.01 0  0.63 0.01 0  0.64 0.01 0  0.65 0.01 0  0.66 0.01 0  0.67 0.01 0  0.68 0.01 0  0.69 0.01 0  0.7 0.01 0  0.71 0.01 0  0.72 0.01 0  0.73 0.01 0  0.74 0.01 0  0.75 0.01 0  0.76 0.01 0  0.77 0.01 0  0.78 0.01 0  0.79 0.01 0  0.8 0.01 0  0.81 0.01 0  0.82 0.01 0  0.83 0.01 0  0.84 0.01 0  0.85 0.01 0  0.86 0.01 0  0.87 0.01 0  0.88 0.01 0  0.89 0.01 0  0.9 0.01 0  0.91 0.01 0  0.92 0.01 0  0.93 0.01 0  0.94 0.01 0  0.95 0.01 0  0.96 0.01 0  0.97 0.01 0  0.98 0.01 0  0.99 0.01 0  1 0.01 0  0 0.02 0  0.01 0.02 0  0.02 0.02 0  0.03 0.02 0  0.04 0.02 0  0.05 0.02 0  0.06 0.02 0  0.07 0.02 0  0.08 0.02 0  0.09 0.02 0  0.1 0.02 0  0.11 0.02 0  0.12 0.02 0  0.13 0.02 0  0.14 0.02 0  0.15 0.02 0  0.16 0.02 0  0.17 0.02 0  0.18 0.02 0  0.19 0.02 0  0.2 0.02 0  0.21 0.02 0  0.22 0.02 0  0.23 0.02 0  0.24 0.02 0  0.25 0.02 0  0.26 0.02 0  0.27 0.02 0  0.28 0.02 0  0.29 0.02 0  0.3 0.02 0  0.31 0.02 0  0.32 0.02 0  0.33 0.02 0  0.34 0.02 0  0.35 0.02 0  0.36 0.02 0  0.37 0.02 0  0.38 0.02 0  0.39 0.02 0  0.4 0.02 0  0.41 0.02 0  0.42 0.02 0  0.43 0.02 0  0.44 0.02 0  0.45 0.02 0  0.46 0.02 0  0.47 0.02 0  0.48 0.02 0  0.49 0.02 0  0.5 0.02 0  0.51 0.02 0  0.52 0.02 0  0.53 0.02 0  0.54 0.02 0  0.55 0.02 0  0.56 0.02 0  0.57 0.02 0  0.58 0.02 0  0.59 0.02 0  0.6 0.02 0  0.61 0.02 0  0.62 0.02 0  0.63 0.02 0  0.64 0.02 0  0.65 0.02 0  0.66 0.02 0  0.67 0.02 0  0.68 0.02 0  0.69 0.02 0  0.7 0.02 0  0.71 0.02 0  0.72 0.02 0  0.73 0.02 0  0.74 0.02 0  0.75 0.02 0  0.76 0.02 0  0.77 0.02 0  0.78 0.02 0  0.79 0.02 0  0.8 0.02 0  0.81 0.02 0  0.82 0.02 0  0.83 0.02 0  0.84 0.02 0  0.85 0.02 0  0.86 0.02 0  0.87 0.02 0  0.88 0.02 0  0.89 0.02 0  0.9 0.02 0  0.91 0.02 0  0.92 0.02 0  0.93 0.02 0  0.94 0.02 0  0.95 0.02 0  0.96 0.02 0  0.97 0.02 0  0.98 0.02 0  0.99 0.02 0  1 0.02 0  0 0.03 0  0.01 0.03 0  0.02 0.03 0  0.03 0.03 0  0.04 0.03 0  0.05 0.03 0  0.06 0.03 0  0.07 0.03 0  0.08 0.03 0  0.09 0.03 0  0.1 0.03 0  0.11 0.03 0  0.12 0.03 0  0.13 0.03 0  0.14 0.03 0  0.15 0.03 0  0.16 0.03 0  0.17 0.03 0  0.18 0.03 0  0.19 0.03 0  0.2 0.03 0  0.21 0.03 0  0.22 0.03 0  0.23 0.03 0  0.24 0.03 0  0.25 0.03 0  0.26 0.03 0  0.27 0.03 0  0.28 0.03 0  0.29 0.03 0  0.3 0.03 0  0.31 0.03 0  0.32 0.03 0  0.33 0.03 0  0.34 0.03 0  0.35 0.03 0  0.36 0.03 0  0.37 0.03 0  0.38 0.03 0  0.39 0.03 0  0.4 0.03 0  0.41 0.03 0  0.42 0.03 0  0.43 0.03 0  0.44 0.03 0  0.45 0.03 0  0.46 0.03 0  0.47 0.03 0  0.48 0.03 0  0.49 0.03 0  0.5 0.03 0  0.51 0.03 0  0.52 0.03 0  0.53 0.03 0  0.54 0.03 0  0.55 0.03 0  0.56 0.03 0  0.57 0.03 0  0.58 0.03 0  0.59 0.03 0  0.6 0.03 0  0.61 0.03 0  0.62 0.03 0  0.63 0.03 0  0.64 0.03 0  0.65 0.03 0  0.66 0.03 0  0.67 0.03 0  0.68 0.03 0  0.69 0.03 0  0.7 0.03 0  0.71 0.03 0  0.72 0.03 0  0.73 0.03 0  0.74 0.03 0  0.75 0.03 0  0.76 0.03 0  0.77 0.03 0  0.78 0.03 0  0.79 0.03 0  0.8 0.03 0  0.81 0.03 0  0.82 0.03 0  0.83 0.03 0  0.84 0.03 0  0.85 0.03 0  0.86 0.03 0  0.87 0.03 0  0.88 0.03 0  0.89 0.03 0  0.9 0.03 0  0.91 0.03 0  0.92 0.03 0  0.93 0.03 0  0.94 0.03 0  0.95 0.03 0  0.96 0.03 0  0.97 0.03 0  0.98 0.03 0  0.99 0.03 0  1 0.03 0  0 0.04 0  0.01 0.04 0  0.02 0.04 0  0.03 0.04 0  0.04 0.04 0  0.05 0.04 0  0.06 0.04 0  0.07 0.04 0  0.08 0.04 0  0.09 0.04 0  0.1 0.04 0  0.11 0.04 0  0.12 0.04 0  0.13 0.04 0  0.14 0.04 0  0.15 0.04 0  0.16 0.04 0  0.17 0.04 0  0.18 0.04 0  0.19 0.04 0  0.2 0.04 0  0.21 0.04 0  0.22 0.04 0  0.23 0.04 0  0.24 0.04 0  0.25 0.04 0  0.26 0.04 0  0.27 0.04 0  0.28 0.04 0  0.29 0.04 0  0.3 0.04 0  0.31 0.04 0  0.32 0.04 0  0.33 0.04 0  0.34 0.04 0  0.35 0.04 0  0.36 0.04 0  0.37 0.04 0  0.38 0.04 0  0.39 0.04 0  0.4 0.04 0  0.41 0.04 0  0.42 0.04 0  0.43 0.04 0  0.44 0.04 0  0.45 0.04 0  0.46 0.04 0  0.47 0.04 0  0.48 0.04 0  0.49 0.04 0  0.5 0.04 0  0.51 0.04 0  0.52 0.04 0  0.53 0.04 0  0.54 0.04 0  0.55 0.04 0  0.56 0.04 0  0.57 0.04 0  0.58 0.04 0  0.59 0.04 0  0.6 0.04 0  0.61 0.04 0  0.62 0.04 0  0.63 0.04 0  0.64 0.04 0  0.65 0.04 0  0.66 0.04 0  0.67 0.04 0  0.68 0.04 0  0.69 0.04 0  0.7 0.04 0  0.71 0.04 0  0.72 0.04 0  0.73 0.04 0  0.74 0.04 0  0.75 0.04 0  0.76 0.04 0  0.77 0.04 0  0.78 0.04 0  0.79 0.04 0  0.8 0.04 0  0.81 0.04 0  0.82 0.04 0  0.83 0.04 0  0.84 0.04 0  0.85 0.04 0  0.86 0.04 0  0.87 0.04 0  0.88 0.04 0  0.89 0.04 0  0.9 0.04 0  0.91 0.04 0  0.92 0.04 0  0.93 0.04 0  0.94 0.04 0  0.95 0.04 0  0.96 0.04 0  0.97 0.04 0  0.98 0.04 0  0.99 0.04 0  1 0.04 0  0 0.05 0  0.01 0.05 0  0.02 0.05 0  0.03 0.05 0  0.04 0.05 0  0.05 0.05 0  0.06 0.05 0  0.07 0.05 0  0.08 0.05 0  0.09 0.05 0  0.1 0.05 0  0.11 0.05 0  0.12 0.05 0  0.13 0.05 0  0.14 0.05 0  0.15 0.05 0  0.16 0.05 0  0.17 0.05 0  0.18 0.05 0  0.19 0.05 0  0.2 0.05 0  0.21 0.05 0  0.22 0.05 0  0.23 0.05 0  0.24 0.05 0  0.25 0.05 0  0.26 0.05 0  0.27 0.05 0  0.28 0.05 0  0.29 0.05 0  0.3 0.05 0  0.31 0.05 0  0.32 0.05 0  0.33 0.05 0  0.34 0.05 0  0.35 0.05 0  0.36 0.05 0  0.37 0.05 0  0.38 0.05 0  0.39 0.05 0  0.4 0.05 0  0.41 0.05 0  0.42 0.05 0  0.43 0.05 0  0.44 0.05 0  0.45 0.05 0  0.46 0.05 0  0.47 0.05 0  0.48 0.05 0  0.49 0.05 0  0.5 0.05 0  0.51 0.05 0  0.52 0.05 0  0.53 0.05 0  0.54 0.05 0  0.55 0.05 0  0.56 0.05 0  0.57 0.05 0  0.58 0.05 0  0.59 0.05 0  0.6 0.05 0  0.61 0.05 0  0.62 0.05 0  0.63 0.05 0  0.64 0.05 0  0.65 0.05 0  0.66 0.05 0  0.67 0.05 0  0.68 0.05 0  0.69 0.05 0  0.7 0.05 0  0.71 0.05 0  0.72 0.05 0  0.73 0.05 0  0.74 0.05 0  0.75 0.05 0  0.76 0.05 0  0.77 0.05 0  0.78 0.05 0  0.79 0.05 0  0.8 0.05 0  0.81 0.05 0  0.82 0.05 0  0.83 0.05 0  0.84 0.05 0  0.85 0.05 0  0.86 0.05 0  0.87 0.05 0  0.88 0.05 0  0.89 0.05 0  0.9 0.05 0  0.91 0.05 0  0.92 0.05 0  0.93 0.05 0  0.94 0.05 0  0.95 0.05 0  0.96 0.05 0  0.97 0.05 0  0.98 0.05 0  0.99 0.05 0  1 0.05 0  0 0.06 0  0.01 0.06 0  0.02 0.06 0  0.03 0.06 0  0.04 0.06 0  0.05 0.06 0  0.06 0.06 0  0.07 0.06 0  0.08 0.06 0  0.09 0.06 0  0.1 0.06 0  0.11 0.06 0  0.12 0.06 0  0.13 0.06 0  0.14 0.06 0  0.15 0.06 0  0.16 0.06 0  0.17 0.06 0  0.18 0.06 0  0.19 0.06 0  0.2 0.06 0  0.21 0.06 0  0.22 0.06 0  0.23 0.06 0  0.24 0.06 0  0.25 0.06 0  0.26 0.06 0  0.27 0.06 0  0.28 0.06 0  0.29 0.06 0  0.3 0.06 0  0.31 0.06 0  0.32 0.06 0  0.33 0.06 0  0.34 0.06 0  0.35 0.06 0  0.36 0.06 0  0.37 0.06 0  0.38 0.06 0  0.39 0.06 0  0.4 0.06 0  0.41 0.06 0  0.42 0.06 0  0.43 0.06 0  0.44 0.06 0  0.45 0.06 0  0.46 0.06 0  0.47 0.06 0  0.48 0.06 0  0.49 0.06 0  0.5 0.06 0  0.51 0.06 0  0.52 0.06 0  0.53 0.06 0  0.54 0.06 0  0.55 0.06 0  0.56 0.06 0  0.57 0.06 0  0.58 0.06 0  0.59 0.06 0  0.6 0.06 0  0.61 0.06 0  0.62 0.06 0  0.63 0.06 0  0.64 0.06 0  0.65 0.06 0  0.66 0.06 0  0.67 0.06 0  0.68 0.06 0  0.69 0.06 0  0.7 0.06 0  0.71 0.06 0  0.72 0.06 0  0.73 0.06 0  0.74 0.06 0  0.75 0.06 0  0.76 0.06 0  0.77 0.06 0  0.78 0.06 0  0.79 0.06 0  0.8 0.06 0  0.81 0.06 0  0.82 0.06 0  0.83 0.06 0  0.84 0.06 0  0.85 0.06 0  0.86 0.06 0  0.87 0.06 0  0.88 0.06 0  0.89 0.06 0  0.9 0.06 0  0.91 0.06 0  0.92 0.06 0  0.93 0.06 0  0.94 0.06 0  0.95 0.06 0  0.96 0.06 0  0.97 0.06 0  0.98 0.06 0  0.99 0.06 0  1 0.06 0  0 0.07 0  0.01 0.07 0  0.02 0.07 0  0.03 0.07 0  0.04 0.07 0  0.05 0.07 0  0.06 0.07 0  0.07 0.07 0  0.08 0.07 0  0.09 0.07 0  0.1 0.07 0  0.11 0.07 0  0.12 0.07 0  0.13 0.07 0  0.14 0.07 0  0.15 0.07 0  0.16 0.07 0  0.17 0.07 0  0.18 0.07 0  0.19 0.07 0  0.2 0.07 0  0.21 0.07 0  0.22 0.07 0  0.23 0.07 0  0.24 0.07 0  0.25 0.07 0  0.26 0.07 0  0.27 0.07 0  0.28 0.07 0  0.29 0.07 0  0.3 0.07 0  0.31 0.07 0  0.32 0.07 0  0.33 0.07 0  0.34 0.07 0  0.35 0.07 0  0.36 0.07 0  0.37 0.07 0  0.38 0.07 0  0.39 0.07 0  0.4 0.07 0  0.41 0.07 0  0.42 0.07 0  0.43 0.07 0  0.44 0.07 0  0.45 0.07 0  0.46 0.07 0  0.47 0.07 0  0.48 0.07 0  0.49 0.07 0  0.5 0.07 0  0.51 0.07 0  0.52 0.07 0  0.53 0.07 0  0.54 0.07 0  0.55 0.07 0  0.56 0.07 0  0.57 0.07 0  0.58 0.07 0  0.59 0.07 0  0.6 0.07 0  0.61 0.07 0  0.62 0.07 0  0.63 0.07 0  0.64 0.07 0  0.65 0.07 0  0.66 0.07 0  0.67 0.07 0  0.68 0.07 0  0.69 0.07 0  0.7 0.07 0  0.71 0.07 0  0.72 0.07 0  0.73 0.07 0  0.74 0.07 0  0.75 0.07 0  0.76 0.07 0  0.77
[...]
<PointData  Vectors="u"> 
<DataArray  type="Float32"  Name="u"  NumberOfComponents="3" format="ascii">0.000000e+00 0.000000e+00 0.000000e+00  0.000000e+00 0.000000e+00 0.000000e+00  0.000000e+00 0.000000e+00 0.000000e+00  0.000000e+00 0.000000e+00 0.000000e+00  0.000000e+00 0.000000e+00 0.000000e+00  0.000000e+00 0.000000e+00 0.000000e+00  0.000000e+00 0.000000e+00 0.000000e+00  0.000000e+00 0.000000e+00 0.000000e+00  0.000000e+00 0.000000e+00 0.000000e+00  0.000000e+00 0.000000e+00 0.000000e+00  0.000000e+00 0.000000e+00 0.000000e+00  0.000000e+00 0.000000e+00 0.000000e+00  0.000000e+00 0.000000e+00 0.000000e+00  0.000000e+00 0.000000e+00 0.000000e+00  0.000000e+00 0.000000e+00 0.000000e+00  0.000000e+00 0.000000e+00 0.000000e+00  0.000000e+00 0.000000e+00 0.000000e+00  0.000000e+00 0.000000e+00 0.000000e+00  0.000000e+00 0.000000e+00 0.000000e+00  0.000000e+00 0.000000e+00 0.000000e+00  0.000000e+00 0.000000e+00 0.000000e+00  0.000000e+00 0.000000e+00 0.000000e+00  0.000000e+00 0.000000e+00 0.000000e+00  0.000000e+00 0.000000e+00 0.000000e+00  0.000000e+00 0.000000e+00 0.000000e+00  0.000000e+00 0.000000e+00 0.000000e+00  0.000000e+00 0.000000e+00 0.000000e+00  0.000000e+00 0.000000e+00 0.000000e+00  0.000000e+00 0.000000e+00 0.000000e+00  0.000000e+00 0.000000e+00 0.000000e+00  0.000000e+00 0.000000e+00 0.000000e+00  0.000000e+00 0.000000e+00 0.000000e+00  0.000000e+00 0.000000e+00 0.000000e+00  0.000000e+00 0.000000e+00 0.000000e+00  0.000000e+00 0.000000e+00 0.000000e+00  0.000000e+00 0.000000e+00 0.000000e+00  0.000000e+00 0.000000e+00 0.000000e+00  0.000000e+00 0.000000e+00 0.000000e+00  0.000000e+00 0.000000e+00 0.000000e+00  0.000000e+00 0.000000e+00 0.000000e+00  0.000000e+00 0.000000e+00 0.000000e+00  0.000000e+00 0.000000e+00 0.000000e+00  0.000000e+00 0.000000e+00 0.000000e+00  0.000000e+00 0.000000e+00 0.000000e+00  0.000000e+00 0.000000e+00 0.000000e+00  0.000000e+00 0.000000e+00 0.000000e+00  0.000000e+00 0.000000e+00 0.000000e+00  0.000000e+00 0.000000e+00 0.000000e+00  0.000000e+00 0.000000e+00 0.000000e+00  0.000000e+00 0.000000e+00 0.000000e+00  0.000000e+00 0.000000e+00 0.000000e+00  0.000000e+00 0.000000e+00 0.000000e+00  0.000000e+00 0.000000e+00 0.000000e+00  0.000000e+00 0.000000e+00 0.000000e+00  0.000000e+00 0.000000e+00 0.000000e+00  0.000000e+00 0.000000e+00 0.000000e+00  0.000000e+00 0.000000e+00 0.000000e+00  0.000000e+00 0.000000e+00 0.000000e+00  0.000000e+00 0.000000e+00 0.000000e+00  0.000000e+00 0.000000e+00 0.000000e+00  0.000000e+00 0.000000e+00 0.000000e+00  0.000000e+00 0.000000e+00 0.000000e+00  0.000000e+00 0.000000e+00 0.000000e+00  0.000000e+00 0.000000e+00 0.000000e+00  0.000000e+00 0.000000e+00 0.000000e+00  0.000000e+00 0.000000e+00 0.000000e+00  0.000000e+00 0.000000e+00 0.000000e+00  0.000000e+00 0.000000e+00 0.000000e+00  0.000000e+00 0.000000e+00 0.000000e+00  0.000000e+00 0.000000e+00 0.000000e+00  0.000000e+00 0.000000e+00 0.000000e+00  0.000000e+00 0.000000e+00 0.000000e+00  0.000000e+00 0.000000e+00 0.000000e+00  0.000000e+00 0.000000e+00 0.000000e+00  0.000000e+00 0.000000e+00 0.000000e+00  0.000000e+00 0.000000e+00 0.000000e+00  0.000000e+00 0.000000e+00 0.000000e+00  0.000000e+00 0.000000e+00 0.000000e+00  0.000000e+00 0.000000e+00 0.000000e+00  0.000000e+00 0.000000e+00 0.000000e+00  0.000000e+00 0.000000e+00 0.000000e+00  0.000000e+00 0.000000e+00 0.000000e+00  0.000000e+00 0.000000e+00 0.000000e+00  0.000000e+00 0.000000e+00 0.000000e+00  0.000000e+00 0.000000e+00 0.000000e+00  0.000000e+00 0.000000e+00 0.000000e+00  0.000000e+00 0.000000e+00 0.000000e+00  0.000000e+00 0.000000e+00 0.000000e+00  0.000000e+00 0.000000e+00 0.000000e+00  0.000000e+00 0.000000e+00 0.000000e+00  0.000000e+00 0.000000e+00 0.000000e+00  0.000000e+00 0.000000e+00 0.000000e+00  0.000000e+00 0.000000e+00 0.000000e+00  0.000000e+00 0.000000e+00 0.000000e+00  0.000000e+00 0.000000e+00 0.000000e+00  0.000000e+00 0.000000e+00 0.000000e+00  0.000000e+00 0.000000e+00 0.000000e+00  0.000000e+00 0.000000e+00 0.000000e+00  0.000000e+00 0.000000e+00 0.000000e+00  0.000000e+00 0.000000e+00 0.000000e+00  0.000000e+00 0.000000e+00 0.000000e+00  9.900000e-03 0.000000e+00 0.000000e+00  9.900000e-03 0.000000e+00 0.000000e+00  9.900000e-03 3.624569e-16 0.000000e+00  9.900000e-03 5.246672e-16 0.000000e+00  9.900000e-03 6.425178e-16 0.000000e+00  9.900000e-03 7.184604e-16 0.000000e+00  9.900000e-03 7.719369e-16 0.000000e+00  9.900000e-03 7.995651e-16 0.000000e+00  9.900000e-03 8.053506e-16 0.000000e+00  9.900000e-03 8.176691e-16 0.000000e+00  9.900000e-03 8.001862e-16 0.000000e+00  9.900000e-03 7.693751e-16 0.000000e+00  9.900000e-03 7.244558e-16 0.000000e+00  9.900000e-03 7.253199e-16 0.000000e+00  9.900000e-03 6.973752e-16 0.000000e+00  9.900000e-03 6.263677e-16 0.000000e+00  9.900000e-03 5.821761e-16 0.000000e+00  9.900000e-03 5.401833e-16 0.000000e+00  9.900000e-03 5.046392e-16 0.000000e+00  9.900000e-03 4.673166e-16 0.000000e+00  9.900000e-03 4.304929e-16 0.000000e+00  9.900000e-03 4.039587e-16 0.000000e+00  9.900000e-03 3.673431e-16 0.000000e+00  9.900000e-03 3.388041e-16 0.000000e+00  9.900000e-03 3.281043e-16 0.000000e+00  9.900000e-03 3.113876e-16 0.000000e+00  9.900000e-03 0.000000e+00 0.000000e+00  9.900000e-03 0.000000e+00 0.000000e+00  9.900000e-03 0.000000e+00 0.000000e+00  9.900000e-03 0.000000e+00 0.000000e+00  9.900000e-03 0.000000e+00 0.000000e+00  9.900000e-03 0.000000e+00 0.000000e+00  9.900000e-03 0.000000e+00 0.000000e+00  9.900000e-03 0.000000e+00 0.000000e+00  9.900000e-03 0.000000e+00 0.000000e+00  9.900000e-03 0.000000e+00 0.000000e+00  9.900000e-03 0.000000e+00 0.000000e+00  9.900000e-03 0.000000e+00 0.000000e+00  9.900000e-03 0.000000e+00 0.000000e+00  9.900000e-03 0.000000e+00 0.000000e+00  9.900000e-03 0.000000e+00 0.000000e+00  9.900000e-03 0.000000e+00 0.000000e+00  9.900000e-03 0.000000e+00 0.000000e+00  9.900000e-03 0.000000e+00 0.000000e+00  9.900000e-03 0.000000e+00 0.000000e+00  9.900000e-03 0.000000e+00 0.000000e+00  9.900000e-03 0.000000e+00 0.000000e+00  9.900000e-03 0.000000e+00 0.000000e+00  9.900000e-03 0.000000e+00 0.000000e+00  9.900000e-03 0.000000e+00 0.000000e+00  9.900000e-03 0.000000e+00 0.000000e+00  9.900000e-03 0.000000e+00 0.000000e+00  9.900000e-03 0.000000e+00 0.000000e+00  9.900000e-03 0.000000e+00 0.000000e+00  9.900000e-03 0.000000e+00 0.000000e+00  9.900000e-03 0.000000e+00 0.000000e+00  9.900000e-03 0.000000e+00 0.000000e+00  9.900000e-03 0.000000e+00 0.000000e+00  9.900000e-03 0.000000e+00 0.000000e+00  9.900000e-03 0.000000e+00 0.000000e+00  9.900000e-03 0.000000e+00 0.000000e+00  9.900000e-03 0.000000e+00 0.000000e+00  9.900000e-03 0.000000e+00 0.000000e+00  9.900000e-03 0.000000e+00 0.000000e+00  9.900000e-03 0.000000e+00 0.000000e+00  9.900000e-03 0.000000e+00 0.000000e+00  9.900000e-03 0.000000e+00 0.000000e+00  9.900000e-03 0.000000e+00 0.000000e+00  9.900000e-03 0.000000e+00 0.000000e+00  9.900000e-03 0.000000e+00 0.000000e+00  9.900000e-03 0.000000e+00 0.000000e+00  9.900000e-03 0.000000e+00 0.000000e+00  9.900000e-03 0.000000e+00 0.000000e+00  9.900000e-03 0.000000e+00 0.000000e+00  9.900000e-03 0.000000e+00 0.000000e+00  9.900000e-03 0.000000e+00 0.000000e+00  9.900000e-03 0.000000e+00 0.000000e+00  9.900000e-03 0.000000e+00 0.000000e+00  9.900000e-03 0.000000e+00 0.000000e+00  9.900000e-03 0.000000e+00 0.000000e+00  9.900000e-03 0.000000e+00 0.000000e+00  9.900000e-03 0.000000e+00 0.000000e+00  9.900000e-03 0.000000e+00 0.000000e+00  9.900000e-03 0.000000e+00 0.000000e+00  9.900000e-03 0.000000e+00 0.000000e+00  9.900000e-03 0.000000e+00 0.000000e+00  9.900000e-03 0.000000e+00 0.000000e+00  9.900000e-03 0.000000e+00 0.000000e+00  9.900000e-03 0.000000e+00 0.000000e+00  9.900000e-03 0.000000e+00 0.000000e+00  9.900000e-03 0.000000e+00 0.000000e+00  9.900000e-03 0.000000e+00 0.000000e+00  9.900000e-03 0.000000e+00 0.000000e+00  9.900000e-03 0.000000e+00 0.000000e+00  9.900000e-03 0.000000e+00 0.000000e+00  9.900000e-03 0.000000e+00 0.000000e+00  9.900000e-03 0.000000e+00 0.000000e+00  9.900000e-03 0.000000e+00 0.000000e+00  9.900000e-03 0.000000e+00 0.000000e+00  9.900000e-03 0.000000e+00 0.000000e+00  9.900000e-03 0.000000e+00 0.000000e+00  1.960000e-02 0.000000e+00 0.000000e+00  1.960000e-02 6.759196e-16 0.000000e+00  1.960000e-02 1.368285e-15 0.000000e+00  1.960000e-02 1.923635e-15 0.000000e+00  1.960000e-02 2.343575e-15 0.000000e+00  1.960000e-02 2.653170e-15 0.000000e+00  1.960000e-02 2.863202e-15 0.000000e+00  1.960000e-02 2.991316e-15 0.000000e+00  1.960000e-02 3.055019e-15 0.000000e+00  1.960000e-02 3.057506e-15 0.000000e+00  1.960000e-02 3.027359e-15 0.000000e+00  1.960000e-02 2.952649e-15 0.000000e+00  1.960000e-02 2.836912e-15 0.000000e+00  1.960000e-02 2.676942e-15 0.000000e+00  1.960000e-02 2.573237e-15 0.000000e+00  1.960000e-02 2.408614e-15 0.000000e+00  1.960000e-02 2.237820e-15 0.000000e+00  1.960000e-02 2.082735e-15 0.000000e+00  1.960000e-02 1.942909e-15 0.000000e+00  1.960000e-02 1.804308e-15 0.000000e+00  1.960000e-02 1.674862e-15 0.000000e+00  1.960000e-02 1.557370e-15 0.000000e+00  1.960000e-02 1.438810e-15 0.000000e+00  1.960000e-02 1.329197e-15 0.000000e+00  1.960000e-02 1.276645e-15 0.000000e+00  1.960000e-02 1.225902e-15 0.000000e+00  1.960000e-02 1.162224e-15 0.000000e+00  1.960000e-02 1.090864e-15 0.000000e+00  1.960000e-02 1.038460e-15 0.000000e+00  1.960000e-02 9.937556e-16 0.000000e+00  1.960000e-02 9.536731e-16 0.000000e+00  1.960000e-02 9.330796e-16 0.000000e+00  1.960000e-02 9.073902e-16 0.000000e+00  1.960000e-02 8.819489e-16 0.000000e+00  1.960000e-02 8.698928e-16 0.000000e+00  1.960000e-02 8.425509e-16 0.000000e+00  1.960000e-02 8.239132e-16 0.000000e+00  1.960000e-02 8.016006e-16 0.000000e+00  1.960000e-02 7.701057e-16 0.000000e+00  1.960000e-02 7.235182e-16 0.000000e+00  1.960000e-02 6.785937e-16 0.000000e+00  1.960000e-02 6.328990e-16 0.000000e+00  1.960000e-02 5.825473e-16 0.000000e+00  1.960000e-02 5.415181e-16 0.000000e+00  1.960000e-02 5.222798e-16 0.000000e+00  1.960000e-02 5.058696e-16 0.000000e+00  1.960000e-02 4.641977e-16 0.000000e+00  1.960000e-02 4.242190e-16 0.000000e+00  1.960000e-02 3.942699e-16 0.000000e+00  1.960000e-02 3.713186e-16 0.000000e+00  1.960000e-02 3.492643e-16 0.000000e+00  1.960000e-02 3.375101e-16 0.000000e+00  1.960000e-02 3.280050e-16 0.000000e+00  1.960000e-02 3.072869e-16 0.000000e+00  1.960000e-02 0.000000e+00 0.000000e+00  1.960000e-02 0.000000e+00 0.000000e+00  1.960000e-02 0.000000e+00 0.000000e+00  1.960000e-02 0.000000e+00 0.000000e+00  1.960000e-02 0.000000e+00 0.000000e+00  1.960000e-02 0.000000e+00 0.000000e+00  1.960000e-02 0.000000e+00 0.000000e+00  1.960000e-02 0.000000e+00 0.000000e+00  1.960000e-02 0.000000e+00 0.000000e+00  1.960000e-02 0.000000e+00 0.000000e+00  1.960000e-02 0.000000e+00 0.000000e+00  1.960000e-02 0.000000e+00 0.000000e+00  1.960000e-02 0.000000e+00 0.000000e+00  1.960000e-02 0.000000e+00 0.000000e+00  1.960000e-02 0.000000e+00 0.000000e+00  1.960000e-02 0.000000e+00 0.000000e+00  1.960000e-02 0.000000e+00 0.000000e+00  1.960000e-02 0.000000e+00 0.000000e+00  1.960000e-02 0.000000e+00 0.000000e+00  1.960000e-02 0.000000e+00 0.000000e+00  1.960000e-02 0.000000e+00 0.000000e+00  1.960000e-02 0.000000e+00 0.000000e+00  1.960000e-02 0.000000e+00 0.000000e+00  1.960000e-02 0.000000e+00 0.000000e+00  1.960000e-02 0.000000e+00 0.000000e+00  1.960000e-02 0.000000e+00 0.000000e+00  1.960000e-02 0.000000e+00 0.000000e+00  1.960000e-02 0.000000e+00 0.000000e+00  1.960000e-02 0.000000e+00 0.000000e+00  1.960000e-02 0.000000e+00 0.000000e+00  1.960000e-02 0.000000e+00 0.000000e+00  1.960000e-02 0.000000e+00 0.000000e+00  1.960000e-02 0.000000e+00 0.000000e+00  1.960000e-02 0.000000e+00 0.000000e+00  1.960000e-02 0.000000e+00 0.000000e+00  1.960000e-02 0.000000e+00 0.000000e+00  1.960000e-02 0.000000e+00 0.000000e+00  1.960000e-02 0.000000e+00 0.000000e+00  1.960000e-02 0.000000e+00 0.000000e+00  1.960000e-02 0.000000e+00 0.000000e+00  1.960000e-02 0.000000e+00 0.000000e+00  1.960000e-02 0.000000e+00 0.000000e+00  1.960000e-02 0.000000e+00 0.000000e+00  1.960000e-02 0.000000e+00 0.000000e+00  1.960000e-02 0.000000e+00 0.000000e+00  1.960000e-02 0.000000e+00 0.000000e+00  1.960000e-02 0.000000e+00 0.000000e+00  2.910000e-02 0.000000e+00 0.000000e+00  2.910000e-02 1.529937e-15 0.000000e+00  2.910000e-02 2.923872e-15 0.000000e+00  2.910000e-02 4.035337e-15 0.000000e+00  2.910000e-02 4.894951e-15 0.000000e+00  2.910000e-02 5.537374e-15 0.000000e+00  2.910000e-02 5.987354e-15 0.000000e+00  2.910000e-02 6.283449e-15 0.000000e+00  2.910000e-02 6.441733e-15 0.000000e+00  2.910000e-02 6.466855e-15 0.000000e+00  2.910000e-02 6.417515e-15 0.000000e+00  2.910000e-02 6.290765e-15 0.000000e+00  2.910000e-02 6.098453e-15 0.000000e+00  2.910000e-02 5.846636e-15 0.000000e+00  2.910000e-02 5.471932e-15 0.000000e+00  2.910000e-02 5.147984e-15 0.000000e+00  2.910000e-02 4.826352e-15 0.000000e+00  2.910000e-02 4.496167e-15 0.000000e+00  2.910000e-02 4.206338e-15 0.000000e+00  2.910000e-02 3.938843e-15 0.000000e+00  2.910000e-02 3.668206e-15 0.000000e+00  2.910000e-02 3.410408e-15 0.000000e+00  2.910000e-02 3.155737e-15 0.000000e+00  2.910000e-02 2.943086e-15 0.000000e+00  2.910000e-02 2.797548e-15 0.000000e+00  2.910000e-02 2.676059e-15 0.000000e+00  2.910000e-02 2.523235e-15 0.000000e+00  2.910000e-02 2.377408e-15 0.000000e+00  2.910000e-02 2.270663e-15 0.000000e+00  2.910000e-02 2.200251e-15 0.000000e+00  2.910000e-02 2.123064e-15 0.000000e+00  2.910000e-02 2.032476e-15 0.000000e+00  2.910000e-02 1.973483e-15 0.000000e+00  2.910000e-02 1.953563e-15 0.000000e+00  2.910000e-02 1.918360e-15 0.000000e+00  2.910000e-02 1.855128e-15 0.000000e+00  2.910000e-02 1.801218e-15 0.000000e+00  2.910000e-02 1.728517e-15 0.000000e+00  2.910000e-02 1.664056e-15 0.000000e+00  2.910000e-02 1.588523e-15 0.000000e+00  2.910000e-02 1.494717e-15 0.000000e+00  2.910000e-02 1.396315e-15 0.000000e+00  2.910000e-02 1.314755e-15 0.000000e+00  2.910000e-02 1.234552e-15 0.000000e+00  2.910000e-02 1.149819e-15 0.000000e+00  2.910000e-02 1.081054e-15 0.000000e+00  2.910000e-02 1.003708e-15 0.000000e+00  2.910000e-02 9.258682e-16 0.000000e+00  2.910000e-02 8.689468e-16 0.000000e+00  2.910000e-02 8.237039e-16 0.000000e+00  2.910000e-02 7.663375e-16 0.000000e+00  2.910000e-02 7.258813e-16 0.000000e+00  2.910000e-02 7.163243e-16 0.000000e+00  2.910000e-02 6.968088e-16 0.000000e+00  2.910000e-02 6.139027e-16 0.000000e+00  2.910000e-02 5.847982e-16 0.000000e+00  2.910000e-02 5.882775e-16 0.000000e+00  2.910000e-02 5.708427e-16 0.000000e+00  2.910000e-02 5.537164e-16 0.000000e+00  2.910000e-02 5.289289e-16 0.000000e+00  2.910000e-02 5.002401e-16 0.000000e+00  2.910000e-02 4.539603e-16 0.000000e+00  2.910000e-02 4.082633e-16 0.000000e+00  2.910000e-02 3.754247e-16 0.000000e+00  2.910000e-02 3.508695e-16 0.000000e+00  2.910000e-02 3.538550e-16 0.000000e+00  2.910000e-02 3.126995e-16 0.000000e+00  2.910000e-02 0.000000e+00 0.000000e+00  2.910000e-02 0.000000e+00 0.000000e+00  2.910000e-02 0.000000e+00 0.000000e+00  2.910000e-02 0.000000e+00 0.000000e+00  2.910000e-02 0.000000e+00 0.000000e+00  2.910000e-02 0.000000e+00 0.000000e+00  2.910000e-02 0.000000e+00 0.000000e+00  2.910000e-02 0.000000e+00 0.000000e+00  2.910000e-02 0.000000e+00 0.000000e+00  2.910000e-02 0.000000e+00 0.000000e+00  2.910000e-02 0.000000e+00 0.000000e+00  2.910000e-02 0.000000e+00 0.000000e+00  2.910000e-02 0.000000e+00 0.000000e+00  2.910000e-02 0.000000e+00 0.000000e+00  2.910000e-02 0.000000e+00 0.000000e+00  2.910000e-02 0.000000e+00 0.000000e+00  2.910000e-02 0.000000e+00 0.000000e+00  2.910000e-02 0.000000e+00 0.000000e+00  2.910000e-02 0.000000e+00 0.000000e+00  2.910000e-02 0.000000e+00 0.000000e+00  2.910000e-02 0.000000e+00 0.000000e+00  2.910000e-02 0.000000e+00 0.000000e+00  2.910000e-02 0.000000e+00 0.000000e+00  2.910000e-02 0.000000e+00 0.000000e+00  2.910000e-02 0.000000e+00 0.000000e+00  2.910000e-02 0.000000e+00 0.000000e+00  2.910000e-02 0.000000e+00 0.000000e+00  2.910000e-02 0.000000e+00 0.000000e+00  2.910000e-02 0.000000e+00 0.000000e+00  2.910000e-02 0.000000e+00 0.000000e+00  2.910000e-02 0.000000e+00 0.000000e+00  2.910000e-02 3.494111e-16 0.000000e+00  2.910000e-02 4.112547e-16 0.000000e+00  2.910000e-02 4.469190e-16 0.000000e+00  3.840000e-02 0.000000e+00 0.000000e+00  3.840000e-02 2.641816e-15 0.000000e+00  3.840000e-02 4.903436e-15 0.000000e+00  3.840000e-02 6.731490e-15 0.000000e+00  3.840000e-02 8.137274e-15 0.000000e+00  3.840000e-02 9.181718e-15 0.000000e+00  3.840000e-02 9.940559e-15 0.000000e+00  3.840000e-02 1.044663e-14 0.000000e+00  3.840000e-02 1.072048e-14 0.000000e+00  3.840000e-02 1.080223e-14 0.000000e+00  3.840000e-02 1.074933e-14 0.000000e+00  3.840000e-02 1.054908e-14 0.000000e+00  3.840000e-02 1.026696e-14 0.000000e+00  3.840000e-02 9.819372e-15 0.000000e+00  3.840000e-02 9.296615e-15 0.000000e+00  3.840000e-02 8.753891e-15 0.000000e+00  3.840000e-02 8.214958e-15 0.000000e+00  3.840000e-02 7.682218e-15 0.000000e+00  3.840000e-02 7.195515e-15 0.000000e+00  3.840000e-02 6.740567e-15 0.000000e+00  3.840000e-02 6.301185e-15 0.000000e+00  3.840000e-02 5.881000e-15 0.000000e+00  3.840000e-02 5.480618e-15 0.000000e+00  3.840000e-02 5.120881e-15 0.000000e+00  3.840000e-02 4.821511e-15 0.000000e+00  3.840000e-02 4.566122e-15 0.000000e+00  3.840000e-02 4.321345e-15 0.000000e+00  3.840000e-02 4.110670e-15 0.000000e+00  3.840000e-02 3.954908e-15 0.000000e+00  3.840000e-02 3.826324e-15 0.000000e+00  3.840000e-02 3.697253e-15 0.000000e+00  3.840000e-02 3.543839e-15 0.000000e+00  3.840000e-02 3.389690e-15 0.000000e+00  3.840000e-02 3.315547e-15 0.000000e+00  3.840000e-02 3.289714e-15 0.000000e+00  3.840000e-02 3.215471e-15 0.000000e+00  3.840000e-02 3.091906e-15 0.000000e+00  3.840000e-02 2.962469e-15 0.000000e+00  3.840000e-02 2.845944e-15 0.000000e+00  3.840000e-02 2.734420e-15 0.000000e+00  3.840000e-02 2.598393e-15 0.000000e+00  3.840000e-02 2.449516e-15 0.000000e+00  3.840000e-02 2.289869e-15 0.000000e+00  3.840000e-02 2.150792e-15 0.000000e+00  3.840000e-02 2.030065e-15 0.000000e+00  3.840000e-02 1.895159e-15 0.000000e+00  3.840000e-02 1.749719e-15 0.000000e+00  3.840000e-02 1.610535e-15 0.000000e+00  3.840000e-02 1.504483e-15 0.000000e+00  3.840000e-02 1.418264e-15 0.000000e+00  3.840000e-02 1.323340e-15 0.000000e+00  3.840000e-02 1.247979e-15 0.000000e+00  3.840000e-02 1.187532e-15 0.000000e+00  3.840000e-02 1.170130e-15 0.000000e+00  3.840000e-02 1.122970e-15 0.000000e+00  3.840000e-02 1.102580e-15 0.000000e+00  3.840000e-02 1.060878e-15 0.000000e+00  3.840000e-02 1.005031e-15 0.000000e+00  3.840000e-02 9.503430e-16 0.000000e+00  3.840000e-02 8.953269e-16 0.000000e+00  3.840000e-02 8.598540e-16 0.000000e+00  3.840000e-02 8.129311e-16 0.000000e+00  3.840000e-02 7.711904e-16 0.000000e+00  3.840000e-02 7.194659e-16 0.000000e+00  3.840000e-02 6.151740e-16 0.000000e+00  3.840000e-02 5.527177e-16 0.000000e+00  3.840000e-02 5.107600e-16 0.000000e+00  3.840000e-02 4.654457e-16 0.000000e+00  3.840000e-02 4.411578e-16 0.000000e+00  3.840000e-02 4.187999e-16 0.000000e+00  3.840000e-02 3.859003e-16 0.000000e+00  3.840000e-02 3.542126e-16 0.000000e+00  3.840000e-02 3.276414e-16 0.000000e+00  3.840000e-02 3.316793e-16 0.000000e+00  3.840000e-02 3.595793e-16 0.000000e+00  3.840000e-02 3.611092e-16 0.000000e+00  3.840000e-02 3.870987e-16 0.000000e+00  3.840000e-02 3.893943e-16 0.000000e+00  3.840000e-02 3.813877e-16 0.000000e+00  3.840000e-02 3.902561e-16 0.000000e+00  3.840000e-02 4.036963e-16 0.000000e+00  3.840000e-02 3.958436e-16 0.000000e+00  3.840000e-02 3.735350e-16 0.000000e+00  3.840000e-02 3.262752e-16 0.000000e+00  3.840000e-02 0.000000e+00 0.000000e+00  3.840000e-02 0.000000e+00 0.000000e+00  3.840000e-02 0.000000e+00 0.000000e+00  3.840000e-02 0.000000e+00 0.000000e+00  3.840000e-02 0.000000e+00 0.000000e+00  3.840000e-02 0.000000e+00 0.000000e+00  3.840000e-02 3.289179e-16 0.000000e+00  3.840000e-02 3.456996e-16 0.000000e+00  3.840000e-02 3.611877e-16 0.000000e+00  3.840000e-02 3.723