<?xml version="1.0"?>
<VTKFile type="UnstructuredGrid"  version="0.1"  >
<UnstructuredGrid>
<Piece  NumberOfPoints="10201" NumberOfCells="20000">
<Points>
<DataArray  type="Float32"  NumberOfComponents="3"  format="ascii">0 0 0  0.01 0 0  0.02 0 0  0.03 0 0  0.04 0 0  0.05 0 0  0.06 0 0  0.07 0 0  0.08 0 0  0.09 0 0  0.1 0 0  0.11 0 0  0.12 0 0  0.13 0 0  0.14 0 0  0.15 0 0  0.16 0 0  0.17 0 0  0.18 0 0  0.19 0 0  0.2 0 0  0.21 0 0  0.22 0 0  0.23 0 0  0.24 0 0  0.25 0 0  0.26 0 0  0.27 0 0  0.28 0 0  0.29 0 0  0.3 0 0  0.31 0 0  0.32 0 0  0.33 0 0  0.34 0 0  0.35 0 0  0.36 0 0  0.37 0 0  0.38 0 0  0.39 0 0  0.4 0 0  0.41 0 0  0.42 0 0  0.43 0 0  0.44 0 0  0.45 0 0  0.46 0 0  0.47 0 0  0.48 0 0  0.49 0 0  0.5 0 0  0.51 0 0  0.52 0 0  0.53 0 0  0.54 0 0  0.55 0 0  0.56 0 0  0.57 0 0  0.58 0 0  0.59 0 0  0.6 0 0  0.61 0 0  0.62 0 0  0.63 0 0  0.64 0 0  0.65 0 0  0.66 0 0  0.67 0 0  0.68 0 0  0.69 0 0  0.7 0 0  0.71 0 0  0.72 0 0  0.73 0 0  0.74 0 0  0.75 0 0  0.76 0 0  0.77 0 0  0.78 0 0  0.79 0 0  0.8 0 0  0.81 0 0  0.82 0 0  0.83 0 0  0.84 0 0  0.85 0 0  0.86 0 0  0.87 0 0  0.88 0 0  0.89 0 0  0.9 0 0  0.91 0 0  0.92 0 0  0.93 0 0  0.94 0 0  0.95 0 0  0.96 0 0  0.97 0 0  0.98 0 0  0.99 0 0  1 0 0  0 0.01 0  0.01 0.01 0  0.02 0.01 0  0.03 0.01 0  0.04 0.01 0  0.05 0.01 0  0.06 0.01 0  0.07 0.01 0  0.08 0.01 0  0.09 0.01 0  0.1 0.01 0  0.11 0.01 0  0.12 0.01 0  0.13 0.01 0  0.14 0.01 0  0.15 0.01 0  0.16 0.01 0  0.17 0.01 0  0.18 0.01 0  0.19 0.01 0  0.2 0.01 0  0.21 0.01 0  0.22 0.01 0  0.23 0.01 0  0.24 0.01 0  0.25 0.01 0  0.26 0.01 0  0.27 0.01 0  0.28 0.01 0  0.29 0.01 0  0.3 0.01 0  0.31 0.01 0  0.32 0.01 0  0.33 0.01 0  0.34 0.01 0  0.35 0.01 0  0.36 0.01 0  0.37 0.01 0  0.38 0.01 0  0.39 0.01 0  0.4 0.01 0  0.41 0.01 0  0.42 0.01 0  0.43 0.01 0  0.44 0.01 0  0.45 0.01 0  0.46 0.01 0  0.47 0.01 0  0.48 0.01 0  0.49 0.01 0  0.5 0.01 0  0.51 0.01 0  0.52 0.01 0  0.53 0.01 0  0.54 0.01 0  0.55 0.01 0  0.56 0.01 0  0.57 0.01 0  0.58 0.01 0  0.59 0.01 0  0.6 0.01 0  0.61 0.01 0  0.62 0.01 0  0.63 0.01 0  0.64 0.01 0  0.65 0.01 0  0.66 0.01 0  0.67 0.01 0  0.68 0.01 0  0.69 0.01 0  0.7 0.01 0  0.71 0.01 0  0.72 0.01 0  0.73 0.01 0  0.74 0.01 0  0.75 0.01 0  0.76 0.01 0  0.77 0.01 0  0.78 0.01 0  0.79 0.01 0  0.8 0.01 0  0.81 0.01 0  0.82 0.01 0  0.83 0.01 0  0.84 0.01 0  0.85 0.01 0  0.86 0.01 0  0.87 0.01 0  0.88 0.01 0  0.89 0.01 0  0.9 0.01 0  0.91 0.01 0  0.92 0.01 0  0.93 0.01 0  0.94 0.01 0  0.95 0.01 0  0.96 0.01 0  0.97 0.01 0  0.98 0.01 0  0.99 0.01 0  1 0.01 0  0 0.02 0  0.01 0.02 0  0.02 0.02 0  0.03 0.02 0  0.04 0.02 0  0.05 0.02 0  0.06 0.02 0  0.07 0.02 0  0.08 0.02 0  0.09 0.02 0  0.1 0.02 0  0.11 0.02 0  0.12 0.02 0  0.13 0.02 0  0.14 0.02 0  0.15 0.02 0  0.16 0.02 0  0.17 0.02 0  0.18 0.02 0  0.19 0.02 0  0.2 0.02 0  0.21 0.02 0  0.22 0.02 0  0.23 0.02 0  0.24 0.02 0  0.25 0.02 0  0.26 0.02 0  0.27 0.02 0  0.28 0.02 0  0.29 0.02 0  0.3 0.02 0  0.31 0.02 0  0.32 0.02 0  0.33 0.02 0  0.34 0.02 0  0.35 0.02 0  0.36 0.02 0  0.37 0.02 0  0.38 0.02 0  0.39 0.02 0  0.4 0.02 0  0.41 0.02 0  0.42 0.02 0  0.43 0.02 0  0.44 0.02 0  0.45 0.02 0  0.46 0.02 0  0.47 0.02 0  0.48 0.02 0  0.49 0.02 0  0.5 0.02 0  0.51 0.02 0  0.52 0.02 0  0.53 0.02 0  0.54 0.02 0  0.55 0.02 0  0.56 0.02 0  0.57 0.02 0  0.58 0.02 0  0.59 0.02 0  0.6 0.02 0  0.61 0.02 0  0.62 0.02 0  0.63 0.02 0  0.64 0.02 0  0.65 0.02 0  0.66 0.02 0  0.67 0.02 0  0.68 0.02 0  0.69 0.02 0  0.7 0.02 0  0.71 0.02 0  0.72 0.02 0  0.73 0.02 0  0.74 0.02 0  0.75 0.02 0  0.76 0.02 0  0.77 0.02 0  0.78 0.02 0  0.79 0.02 0  0.8 0.02 0  0.81 0.02 0  0.82 0.02 0  0.83 0.02 0  0.84 0.02 0  0.85 0.02 0  0.86 0.02 0  0.87 0.02 0  0.88 0.02 0  0.89 0.02 0  0.9 0.02 0  0.91 0.02 0  0.92 0.02 0  0.93 0.02 0  0.94 0.02 0  0.95 0.02 0  0.96 0.02 0  0.97 0.02 0  0.98 0.02 0  0.99 0.02 0  1 0.02 0  0 0.03 0  0.01 0.03 0  0.02 0.03 0  0.03 0.03 0  0.04 0.03 0  0.05 0.03 0  0.06 0.03 0  0.07 0.03 0  0.08 0.03 0  0.09 0.03 0  0.1 0.03 0  0.11 0.03 0  0.12 0.03 0  0.13 0.03 0  0.14 0.03 0  0.15 0.03 0  0.16 0.03 0  0.17 0.03 0  0.18 0.03 0  0.19 0.03 0  0.2 0.03 0  0.21 0.03 0  0.22 0.03 0  0.23 0.03 0  0.24 0.03 0  0.25 0.03 0  0.26 0.03 0  0.27 0.03 0  0.28 0.03 0  0.29 0.03 0  0.3 0.03 0  0.31 0.03 0  0.32 0.03 0  0.33 0.03 0  0.34 0.03 0  0.35 0.03 0  0.36 0.03 0  0.37 0.03 0  0.38 0.03 0  0.39 0.03 0  0.4 0.03 0  0.41 0.03 0  0.42 0.03 0  0.43 0.03 0  0.44 0.03 0  0.45 0.03 0  0.46 0.03 0  0.47 0.03 0  0.48 0.03 0  0.49 0.03 0  0.5 0.03 0  0.51 0.03 0  0.52 0.03 0  0.53 0.03 0  0.54 0.03 0  0.55 0.03 0  0.56 0.03 0  0.57 0.03 0  0.58 0.03 0  0.59 0.03 0  0.6 0.03 0  0.61 0.03 0  0.62 0.03 0  0.63 0.03 0  0.64 0.03 0  0.65 0.03 0  0.66 0.03 0  0.67 0.03 0  0.68 0.03 0  0.69 0.03 0  0.7 0.03 0  0.71 0.03 0  0.72 0.03 0  0.73 0.03 0  0.74 0.03 0  0.75 0.03 0  0.76 0.03 0  0.77 0.03 0  0.78 0.03 0  0.79 0.03 0  0.8 0.03 0  0.81 0.03 0  0.82 0.03 0  0.83 0.03 0  0.84 0.03 0  0.85 0.03 0  0.86 0.03 0  0.87 0.03 0  0.88 0.03 0  0.89 0.03 0  0.9 0.03 0  0.91 0.03 0  0.92 0.03 0  0.93 0.03 0  0.94 0.03 0  0.95 0.03 0  0.96 0.03 0  0.97 0.03 0  0.98 0.03 0  0.99 0.03 0  1 0.03 0  0 0.04 0  0.01 0.04 0  0.02 0.04 0  0.03 0.04 0  0.04 0.04 0  0.05 0.04 0  0.06 0.04 0  0.07 0.04 0  0.08 0.04 0  0.09 0.04 0  0.1 0.04 0  0.11 0.04 0  0.12 0.04 0  0.13 0.04 0  0.14 0.04 0  0.15 0.04 0  0.16 0.04 0  0.17 0.04 0  0.18 0.04 0  0.19 0.04 0  0.2 0.04 0  0.21 0.04 0  0.22 0.04 0  0.23 0.04 0  0.24 0.04 0  0.25 0.04 0  0.26 0.04 0  0.27 0.04 0  0.28 0.04 0  0.29 0.04 0  0.3 0.04 0  0.31 0.04 0  0.32 0.04 0  0.33 0.04 0  0.34 0.04 0  0.35 0.04 0  0.36 0.04 0  0.37 0.04 0  0.38 0.04 0  0.39 0.04 0  0.4 0.04 0  0.41 0.04 0  0.42 0.04 0  0.43 0.04 0  0.44 0.04 0  0.45 0.04 0  0.46 0.04 0  0.47 0.04 0  0.48 0.04 0  0.49 0.04 0  0.5 0.04 0  0.51 0.04 0  0.52 0.04 0  0.53 0.04 0  0.54 0.04 0  0.55 0.04 0  0.56 0.04 0  0.57 0.04 0  0.58 0.04 0  0.59 0.04 0  0.6 0.04 0  0.61 0.04 0  0.62 0.04 0  0.63 0.04 0  0.64 0.04 0  0.65 0.04 0  0.66 0.04 0  0.67 0.04 0  0.68 0.04 0  0.69 0.04 0  0.7 0.04 0  0.71 0.04 0  0.72 0.04 0  0.73 0.04 0  0.74 0.04 0  0.75 0.04 0  0.76 0.04 0  0.77 0.04 0  0.78 0.04 0  0.79 0.04 0  0.8 0.04 0  0.81 0.04 0  0.82 0.04 0  0.83 0.04 0  0.84 0.04 0  0.85 0.04 0  0.86 0.04 0  0.87 0.04 0  0.88 0.04 0  0.89 0.04 0  0.9 0.04 0  0.91 0.04 0  0.92 0.04 0  0.93 0.04 0  0.94 0.04 0  0.95 0.04 0  0.96 0.04 0  0.97 0.04 0  0.98 0.04 0  0.99 0.04 0  1 0.04 0  0 0.05 0  0.01 0.05 0  0.02 0.05 0  0.03 0.05 0  0.04 0.05 0  0.05 0.05 0  0.06 0.05 0  0.07 0.05 0  0.08 0.05 0  0.09 0.05 0  0.1 0.05 0  0.11 0.05 0  0.12 0.05 0  0.13 0.05 0  0.14 0.05 0  0.15 0.05 0  0.16 0.05 0  0.17 0.05 0  0.18 0.05 0  0.19 0.05 0  0.2 0.05 0  0.21 0.05 0  0.22 0.05 0  0.23 0.05 0  0.24 0.05 0  0.25 0.05 0  0.26 0.05 0  0.27 0.05 0  0.28 0.05 0  0.29 0.05 0  0.3 0.05 0  0.31 0.05 0  0.32 0.05 0  0.33 0.05 0  0.34 0.05 0  0.35 0.05 0  0.36 0.05 0  0.37 0.05 0  0.38 0.05 0  0.39 0.05 0  0.4 0.05 0  0.41 0.05 0  0.42 0.05 0  0.43 0.05 0  0.44 0.05 0  0.45 0.05 0  0.46 0.05 0  0.47 0.05 0  0.48 0.05 0  0.49 0.05 0  0.5 0.05 0  0.51 0.05 0  0.52 0.05 0  0.53 0.05 0  0.54 0.05 0  0.55 0.05 0  0.56 0.05 0  0.57 0.05 0  0.58 0.05 0  0.59 0.05 0  0.6 0.05 0  0.61 0.05 0  0.62 0.05 0  0.63 0.05 0  0.64 0.05 0  0.65 0.05 0  0.66 0.05 0  0.67 0.05 0  0.68 0.05 0  0.69 0.05 0  0.7 0.05 0  0.71 0.05 0  0.72 0.05 0  0.73 0.05 0  0.74 0.05 0  0.75 0.05 0  0.76 0.05 0  0.77 0.05 0  0.78 0.05 0  0.79 0.05 0  0.8 0.05 0  0.81 0.05 0  0.82 0.05 0  0.83 0.05 0  0.84 0.05 0  0.85 0.05 0  0.86 0.05 0  0.87 0.05 0  0.88 0.05 0  0.89 0.05 0  0.9 0.05 0  0.91 0.05 0  0.92 0.05 0  0.93 0.05 0  0.94 0.05 0  0.95 0.05 0  0.96 0.05 0  0.97 0.05 0  0.98 0.05 0  0.99 0.05 0  1 0.05 0  0 0.06 0  0.01 0.06 0  0.02 0.06 0  0.03 0.06 0  0.04 0.06 0  0.05 0.06 0  0.06 0.06 0  0.07 0.06 0  0.08 0.06 0  0.09 0.06 0  0.1 0.06 0  0.11 0.06 0  0.12 0.06 0  0.13 0.06 0  0.14 0.06 0  0.15 0.06 0  0.16 0.06 0  0.17 0.06 0  0.18 0.06 0  0.19 0.06 0  0.2 0.06 0  0.21 0.06 0  0.22 0.06 0  0.23 0.06 0  0.24 0.06 0  0.25 0.06 0  0.26 0.06 0  0.27 0.06 0  0.28 0.06 0  0.29 0.06 0  0.3 0.06 0  0.31 0.06 0  0.32 0.06 0  0.33 0.06 0  0.34 0.06 0  0.35 0.06 0  0.36 0.06 0  0.37 0.06 0  0.38 0.06 0  0.39 0.06 0  0.4 0.06 0  0.41 0.06 0  0.42 0.06 0  0.43 0.06 0  0.44 0.06 0  0.45 0.06 0  0.46 0.06 0  0.47 0.06 0  0.48 0.06 0  0.49 0.06 0  0.5 0.06 0  0.51 0.06 0  0.52 0.06 0  0.53 0.06 0  0.54 0.06 0  0.55 0.06 0  0.56 0.06 0  0.57 0.06 0  0.58 0.06 0  0.59 0.06 0  0.6 0.06 0  0.61 0.06 0  0.62 0.06 0  0.63 0.06 0  0.64 0.06 0  0.65 0.06 0  0.66 0.06 0  0.67 0.06 0  0.68 0.06 0  0.69 0.06 0  0.7 0.06 0  0.71 0.06 0  0.72 0.06 0  0.73 0.06 0  0.74 0.06 0  0.75 0.06 0  0.76 0.06 0  0.77 0.06 0  0.78 0.06 0  0.79 0.06 0  0.8 0.06 0  0.81 0.06 0  0.82 0.06 0  0.83 0.06 0  0.84 0.06 0  0.85 0.06 0  0.86 0.06 0  0.87 0.06 0  0.88 0.06 0  0.89 0.06 0  0.9 0.06 0  0.91 0.06 0  0.92 0.06 0  0.93 0.06 0  0.94 0.06 0  0.95 0.06 0  0.96 0.06 0  0.97 0.06 0  0.98 0.06 0  0.99 0.06 0  1 0.06 0  0 0.07 0  0.01 0.07 0  0.02 0.07 0  0.03 0.07 0  0.04 0.07 0  0.05 0.07 0  0.06 0.07 0  0.07 0.07 0  0.08 0.07 0  0.09 0.07 0  0.1 0.07 0  0.11 0.07 0  0.12 0.07 0  0.13 0.07 0  0.14 0.07 0  0.15 0.07 0  0.16 0.07 0  0.17 0.07 0  0.18 0.07 0  0.19 0.07 0  0.2 0.07 0  0.21 0.07 0  0.22 0.07 0  0.23 0.07 0  0.24 0.07 0  0.25 0.07 0  0.26 0.07 0  0.27 0.07 0  0.28 0.07 0  0.29 0.07 0  0.3 0.07 0  0.31 0.07 0  0.32 0.07 0  0.33 0.07 0  0.34 0.07 0  0.35 0.07 0  0.36 0.07 0  0.37 0.07 0  0.38 0.07 0  0.39 0.07 0  0.4 0.07 0  0.41 0.07 0  0.42 0.07 0  0.43 0.07 0  0.44 0.07 0  0.45 0.07 0  0.46 0.07 0  0.47 0.07 0  0.48 0.07 0  0.49 0.07 0  0.5 0.07 0  0.51 0.07 0  0.52 0.07 0  0.53 0.07 0  0.54 0.07 0  0.55 0.07 0  0.56 0.07 0  0.57 0.07 0  0.58 0.07 0  0.59 0.07 0  0.6 0.07 0  0.61 0.07 0  0.62 0.07 0  0.63 0.07 0  0.64 0.07 0  0.65 0.07 0  0.66 0.07 0  0.67 0.07 0  0.68 0.07 0  0.69 0.07 0  0.7 0.07 0  0.71 0.07 0  0.72 0.07 0  0.73 0.07 0  0.74 0.07 0  0.75 0.07 0  0.76 0.07 0  0.77
[...]
<PointData  Vectors="u"> 
<DataArray  type="Float32"  Name="u"  NumberOfComponents="3" format="ascii">0.000000e+00 0.000000e+00 0.000000e+00  0.000000e+00 0.000000e+00 0.000000e+00  0.000000e+00 0.000000e+00 0.000000e+00  0.000000e+00 0.000000e+00 0.000000e+00  0.000000e+00 0.000000e+00 0.000000e+00  0.000000e+00 0.000000e+00 0.000000e+00  0.000000e+00 0.000000e+00 0.000000e+00  0.000000e+00 0.000000e+00 0.000000e+00  0.000000e+00 0.000000e+00 0.000000e+00  0.000000e+00 0.000000e+00 0.000000e+00  0.000000e+00 0.000000e+00 0.000000e+00  0.000000e+00 0.000000e+00 0.000000e+00  0.000000e+00 0.000000e+00 0.000000e+00  0.000000e+00 0.000000e+00 0.000000e+00  0.000000e+00 0.000000e+00 0.000000e+00  0.000000e+00 0.000000e+00 0.000000e+00  0.000000e+00 0.000000e+00 0.000000e+00  0.000000e+00 0.000000e+00 0.000000e+00  0.000000e+00 0.000000e+00 0.000000e+00  0.000000e+00 0.000000e+00 0.000000e+00  0.000000e+00 0.000000e+00 0.000000e+00  0.000000e+00 0.000000e+00 0.000000e+00  0.000000e+00 0.000000e+00 0.000000e+00  0.000000e+00 0.000000e+00 0.000000e+00  0.000000e+00 0.000000e+00 0.000000e+00  0.000000e+00 0.000000e+00 0.000000e+00  0.000000e+00 0.000000e+00 0.000000e+00  0.000000e+00 0.000000e+00 0.000000e+00  0.000000e+00 0.000000e+00 0.000000e+00  0.000000e+00 0.000000e+00 0.000000e+00  0.000000e+00 0.000000e+00 0.000000e+00  0.000000e+00 0.000000e+00 0.000000e+00  0.000000e+00 0.000000e+00 0.000000e+00  0.000000e+00 0.000000e+00 0.000000e+00  0.000000e+00 0.000000e+00 0.000000e+00  0.000000e+00 0.000000e+00 0.000000e+00  0.000000e+00 0.000000e+00 0.000000e+00  0.000000e+00 0.000000e+00 0.000000e+00  0.000000e+00 0.000000e+00 0.000000e+00  0.000000e+00 0.000000e+00 0.000000e+00  0.000000e+00 0.000000e+00 0.000000e+00  0.000000e+00 0.000000e+00 0.000000e+00  0.000000e+00 0.000000e+00 0.000000e+00  0.000000e+00 0.000000e+00 0.000000e+00  0.000000e+00 0.000000e+00 0.000000e+00  0.000000e+00 0.000000e+00 0.000000e+00  0.000000e+00 0.000000e+00 0.000000e+00  0.000000e+00 0.000000e+00 0.000000e+00  0.000000e+00 0.000000e+00 0.000000e+00  0.000000e+00 0.000000e+00 0.000000e+00  0.000000e+00 0.000000e+00 0.000000e+00  0.000000e+00 0.000000e+00 0.000000e+00  0.000000e+00 0.000000e+00 0.000000e+00  0.000000e+00 0.000000e+00 0.000000e+00  0.000000e+00 0.000000e+00 0.000000e+00  0.000000e+00 0.000000e+00 0.000000e+00  0.000000e+00 0.000000e+00 0.000000e+00  0.000000e+00 0.000000e+00 0.000000e+00  0.000000e+00 0.000000e+00 0.000000e+00  0.000000e+00 0.000000e+00 0.000000e+00  0.000000e+00 0.000000e+00 0.000000e+00  0.000000e+00 0.000000e+00 0.000000e+00  0.000000e+00 0.000000e+00 0.000000e+00  0.000000e+00 0.000000e+00 0.000000e+00  0.000000e+00 0.000000e+00 0.000000e+00  0.000000e+00 0.000000e+00 0.000000e+00  0.000000e+00 0.000000e+00 0.000000e+00  0.000000e+00 0.000000e+00 0.000000e+00  0.000000e+00 0.000000e+00 0.000000e+00  0.000000e+00 0.000000e+00 0.000000e+00  0.000000e+00 0.000000e+00 0.000000e+00  0.000000e+00 0.000000e+00 0.000000e+00  0.000000e+00 0.000000e+00 0.000000e+00  0.000000e+00 0.000000e+00 0.000000e+00  0.000000e+00 0.000000e+00 0.000000e+00  0.000000e+00 0.000000e+00 0.000000e+00  0.000000e+00 0.000000e+00 0.000000e+00  0.000000e+00 0.000000e+00 0.000000e+00  0.000000e+00 0.000000e+00 0.000000e+00  0.000000e+00 0.000000e+00 0.000000e+00  0.000000e+00 0.000000e+00 0.000000e+00  0.000000e+00 0.000000e+00 0.000000e+00  0.000000e+00 0.000000e+00 0.000000e+00  0.000000e+00 0.000000e+00 0.000000e+00  0.000000e+00 0.000000e+00 0.000000e+00  0.000000e+00 0.000000e+00 0.000000e+00  0.000000e+00 0.000000e+00 0.000000e+00  0.000000e+00 0.000000e+00 0.000000e+00  0.000000e+00 0.000000e+00 0.000000e+00  0.000000e+00 0.000000e+00 0.000000e+00  0.000000e+00 0.000000e+00 0.000000e+00  0.000000e+00 0.000000e+00 0.000000e+00  0.000000e+00 0.000000e+00 0.000000e+00  0.000000e+00 0.000000e+00 0.000000e+00  0.000000e+00 0.000000e+00 0.000000e+00  0.000000e+00 0.000000e+00 0.000000e+00  0.000000e+00 0.000000e+00 0.000000e+00  0.000000e+00 0.000000e+00 0.000000e+00  0.000000e+00 0.000000e+00 0.000000e+00  0.000000e+00 0.000000e+00 0.000000e+00  0.000000e+00 0.000000e+00 0.000000e+00  9.900000e-03 0.000000e+00 0.000000e+00  9.900000e-03 0.000000e+00 0.000000e+00  9.900000e-03 4.860614e-16 0.000000e+00  9.900000e-03 7.119876e-16 0.000000e+00  9.900000e-03 8.798859e-16 0.000000e+00  9.900000e-03 9.995379e-16 0.000000e+00  9.900000e-03 1.079249e-15 0.000000e+00  9.900000e-03 1.124978e-15 0.000000e+00  9.900000e-03 1.155998e-15 0.000000e+00  9.900000e-03 1.169829e-15 0.000000e+00  9.900000e-03 1.178068e-15 0.000000e+00  9.900000e-03 1.204503e-15 0.000000e+00  9.900000e-03 1.147308e-15 0.000000e+00  9.900000e-03 1.123376e-15 0.000000e+00  9.900000e-03 1.113221e-15 0.000000e+00  9.900000e-03 1.093123e-15 0.000000e+00  9.900000e-03 1.061542e-15 0.000000e+00  9.900000e-03 1.036873e-15 0.000000e+00  9.900000e-03 1.011291e-15 0.000000e+00  9.900000e-03 9.793861e-16 0.000000e+00  9.900000e-03 9.381613e-16 0.000000e+00  9.900000e-03 9.048157e-16 0.000000e+00  9.900000e-03 8.586342e-16 0.000000e+00  9.900000e-03 8.038555e-16 0.000000e+00  9.900000e-03 7.764518e-16 0.000000e+00  9.900000e-03 7.292668e-16 0.000000e+00  9.900000e-03 6.764248e-16 0.000000e+00  9.900000e-03 6.254360e-16 0.000000e+00  9.900000e-03 5.776556e-16 0.000000e+00  9.900000e-03 5.381192e-16 0.000000e+00  9.900000e-03 4.936709e-16 0.000000e+00  9.900000e-03 4.501514e-16 0.000000e+00  9.900000e-03 4.066681e-16 0.000000e+00  9.900000e-03 3.700205e-16 0.000000e+00  9.900000e-03 3.280229e-16 0.000000e+00  9.900000e-03 0.000000e+00 0.000000e+00  9.900000e-03 0.000000e+00 0.000000e+00  9.900000e-03 0.000000e+00 0.000000e+00  9.900000e-03 0.000000e+00 0.000000e+00  9.900000e-03 0.000000e+00 0.000000e+00  9.900000e-03 0.000000e+00 0.000000e+00  9.900000e-03 0.000000e+00 0.000000e+00  9.900000e-03 0.000000e+00 0.000000e+00  9.900000e-03 0.000000e+00 0.000000e+00  9.900000e-03 0.000000e+00 0.000000e+00  9.900000e-03 0.000000e+00 0.000000e+00  9.900000e-03 0.000000e+00 0.000000e+00  9.900000e-03 0.000000e+00 0.000000e+00  9.900000e-03 0.000000e+00 0.000000e+00  9.900000e-03 0.000000e+00 0.000000e+00  9.900000e-03 0.000000e+00 0.000000e+00  9.900000e-03 0.000000e+00 0.000000e+00  9.900000e-03 0.000000e+00 0.000000e+00  9.900000e-03 0.000000e+00 0.000000e+00  9.900000e-03 0.000000e+00 0.000000e+00  9.900000e-03 0.000000e+00 0.000000e+00  9.900000e-03 0.000000e+00 0.000000e+00  9.900000e-03 0.000000e+00 0.000000e+00  9.900000e-03 0.000000e+00 0.000000e+00  9.900000e-03 0.000000e+00 0.000000e+00  9.900000e-03 0.000000e+00 0.000000e+00  9.900000e-03 0.000000e+00 0.000000e+00  9.900000e-03 0.000000e+00 0.000000e+00  9.900000e-03 0.000000e+00 0.000000e+00  9.900000e-03 0.000000e+00 0.000000e+00  9.900000e-03 0.000000e+00 0.000000e+00  9.900000e-03 0.000000e+00 0.000000e+00  9.900000e-03 0.000000e+00 0.000000e+00  9.900000e-03 0.000000e+00 0.000000e+00  9.900000e-03 0.000000e+00 0.000000e+00  9.900000e-03 0.000000e+00 0.000000e+00  9.900000e-03 0.000000e+00 0.000000e+00  9.900000e-03 0.000000e+00 0.000000e+00  9.900000e-03 0.000000e+00 0.000000e+00  9.900000e-03 0.000000e+00 0.000000e+00  9.900000e-03 0.000000e+00 0.000000e+00  9.900000e-03 0.000000e+00 0.000000e+00  9.900000e-03 0.000000e+00 0.000000e+00  9.900000e-03 0.000000e+00 0.000000e+00  9.900000e-03 0.000000e+00 0.000000e+00  9.900000e-03 0.000000e+00 0.000000e+00  9.900000e-03 0.000000e+00 0.000000e+00  9.900000e-03 0.000000e+00 0.000000e+00  9.900000e-03 0.000000e+00 0.000000e+00  9.900000e-03 0.000000e+00 0.000000e+00  9.900000e-03 0.000000e+00 0.000000e+00  9.900000e-03 0.000000e+00 0.000000e+00  9.900000e-03 0.000000e+00 0.000000e+00  9.900000e-03 0.000000e+00 0.000000e+00  9.900000e-03 0.000000e+00 0.000000e+00  9.900000e-03 0.000000e+00 0.000000e+00  9.900000e-03 0.000000e+00 0.000000e+00  9.900000e-03 0.000000e+00 0.000000e+00  9.900000e-03 0.000000e+00 0.000000e+00  9.900000e-03 0.000000e+00 0.000000e+00  9.900000e-03 0.000000e+00 0.000000e+00  9.900000e-03 0.000000e+00 0.000000e+00  9.900000e-03 0.000000e+00 0.000000e+00  9.900000e-03 0.000000e+00 0.000000e+00  9.900000e-03 0.000000e+00 0.000000e+00  9.900000e-03 0.000000e+00 0.000000e+00  1.960000e-02 0.000000e+00 0.000000e+00  1.960000e-02 9.050919e-16 0.000000e+00  1.960000e-02 1.849408e-15 0.000000e+00  1.960000e-02 2.637610e-15 0.000000e+00  1.960000e-02 3.240468e-15 0.000000e+00  1.960000e-02 3.692393e-15 0.000000e+00  1.960000e-02 4.007556e-15 0.000000e+00  1.960000e-02 4.210402e-15 0.000000e+00  1.960000e-02 4.344068e-15 0.000000e+00  1.960000e-02 4.426957e-15 0.000000e+00  1.960000e-02 4.465441e-15 0.000000e+00  1.960000e-02 4.466790e-15 0.000000e+00  1.960000e-02 4.448343e-15 0.000000e+00  1.960000e-02 4.400007e-15 0.000000e+00  1.960000e-02 4.271265e-15 0.000000e+00  1.960000e-02 4.183612e-15 0.000000e+00  1.960000e-02 4.087382e-15 0.000000e+00  1.960000e-02 3.985505e-15 0.000000e+00  1.960000e-02 3.882848e-15 0.000000e+00  1.960000e-02 3.770136e-15 0.000000e+00  1.960000e-02 3.638268e-15 0.000000e+00  1.960000e-02 3.497381e-15 0.000000e+00  1.960000e-02 3.330050e-15 0.000000e+00  1.960000e-02 3.128600e-15 0.000000e+00  1.960000e-02 2.975514e-15 0.000000e+00  1.960000e-02 2.811149e-15 0.000000e+00  1.960000e-02 2.626594e-15 0.000000e+00  1.960000e-02 2.437278e-15 0.000000e+00  1.960000e-02 2.251952e-15 0.000000e+00  1.960000e-02 2.085009e-15 0.000000e+00  1.960000e-02 1.929622e-15 0.000000e+00  1.960000e-02 1.767228e-15 0.000000e+00  1.960000e-02 1.607285e-15 0.000000e+00  1.960000e-02 1.441803e-15 0.000000e+00  1.960000e-02 1.298400e-15 0.000000e+00  1.960000e-02 1.196511e-15 0.000000e+00  1.960000e-02 1.091846e-15 0.000000e+00  1.960000e-02 9.794156e-16 0.000000e+00  1.960000e-02 8.697413e-16 0.000000e+00  1.960000e-02 7.790720e-16 0.000000e+00  1.960000e-02 6.965343e-16 0.000000e+00  1.960000e-02 6.186014e-16 0.000000e+00  1.960000e-02 5.318347e-16 0.000000e+00  1.960000e-02 4.511406e-16 0.000000e+00  1.960000e-02 4.239565e-16 0.000000e+00  1.960000e-02 3.971537e-16 0.000000e+00  1.960000e-02 3.350079e-16 0.000000e+00  1.960000e-02 0.000000e+00 0.000000e+00  1.960000e-02 0.000000e+00 0.000000e+00  1.960000e-02 0.000000e+00 0.000000e+00  1.960000e-02 0.000000e+00 0.000000e+00  1.960000e-02 0.000000e+00 0.000000e+00  1.960000e-02 0.000000e+00 0.000000e+00  1.960000e-02 0.000000e+00 0.000000e+00  1.960000e-02 0.000000e+00 0.000000e+00  1.960000e-02 0.000000e+00 0.000000e+00  1.960000e-02 0.000000e+00 0.000000e+00  1.960000e-02 0.000000e+00 0.000000e+00  1.960000e-02 0.000000e+00 0.000000e+00  1.960000e-02 0.000000e+00 0.000000e+00  1.960000e-02 0.000000e+00 0.000000e+00  1.960000e-02 0.000000e+00 0.000000e+00  1.960000e-02 0.000000e+00 0.000000e+00  1.960000e-02 0.000000e+00 0.000000e+00  1.960000e-02 0.000000e+00 0.000000e+00  1.960000e-02 0.000000e+00 0.000000e+00  1.960000e-02 0.000000e+00 0.000000e+00  1.960000e-02 0.000000e+00 0.000000e+00  1.960000e-02 0.000000e+00 0.000000e+00  1.960000e-02 0.000000e+00 0.000000e+00  1.960000e-02 0.000000e+00 0.000000e+00  1.960000e-02 0.000000e+00 0.000000e+00  1.960000e-02 0.000000e+00 0.000000e+00  1.960000e-02 0.000000e+00 0.000000e+00  1.960000e-02 0.000000e+00 0.000000e+00  1.960000e-02 0.000000e+00 0.000000e+00  1.960000e-02 0.000000e+00 0.000000e+00  1.960000e-02 0.000000e+00 0.000000e+00  1.960000e-02 0.000000e+00 0.000000e+00  1.960000e-02 0.000000e+00 0.000000e+00  1.960000e-02 0.000000e+00 0.000000e+00  1.960000e-02 0.000000e+00 0.000000e+00  1.960000e-02 0.000000e+00 0.000000e+00  1.960000e-02 0.000000e+00 0.000000e+00  1.960000e-02 0.000000e+00 0.000000e+00  1.960000e-02 0.000000e+00 0.000000e+00  1.960000e-02 0.000000e+00 0.000000e+00  1.960000e-02 0.000000e+00 0.000000e+00  1.960000e-02 0.000000e+00 0.000000e+00  1.960000e-02 0.000000e+00 0.000000e+00  1.960000e-02 0.000000e+00 0.000000e+00  1.960000e-02 0.000000e+00 0.000000e+00  1.960000e-02 0.000000e+00 0.000000e+00  1.960000e-02 0.000000e+00 0.000000e+00  1.960000e-02 0.000000e+00 0.000000e+00  1.960000e-02 0.000000e+00 0.000000e+00  1.960000e-02 0.000000e+00 0.000000e+00  1.960000e-02 0.000000e+00 0.000000e+00  1.960000e-02 0.000000e+00 0.000000e+00  1.960000e-02 -3.127126e-16 0.000000e+00  1.960000e-02 -3.463235e-16 0.000000e+00  2.910000e-02 0.000000e+00 0.000000e+00  2.910000e-02 2.055376e-15 0.000000e+00  2.910000e-02 3.957777e-15 0.000000e+00  2.910000e-02 5.539806e-15 0.000000e+00  2.910000e-02 6.774694e-15 0.000000e+00  2.910000e-02 7.714278e-15 0.000000e+00  2.910000e-02 8.396710e-15 0.000000e+00  2.910000e-02 8.877824e-15 0.000000e+00  2.910000e-02 9.212498e-15 0.000000e+00  2.910000e-02 9.398652e-15 0.000000e+00  2.910000e-02 9.500668e-15 0.000000e+00  2.910000e-02 9.529031e-15 0.000000e+00  2.910000e-02 9.482251e-15 0.000000e+00  2.910000e-02 9.293543e-15 0.000000e+00  2.910000e-02 9.163878e-15 0.000000e+00  2.910000e-02 9.002003e-15 0.000000e+00  2.910000e-02 8.825941e-15 0.000000e+00  2.910000e-02 8.604548e-15 0.000000e+00  2.910000e-02 8.382430e-15 0.000000e+00  2.910000e-02 8.144503e-15 0.000000e+00  2.910000e-02 7.879177e-15 0.000000e+00  2.910000e-02 7.570876e-15 0.000000e+00  2.910000e-02 7.228615e-15 0.000000e+00  2.910000e-02 6.832138e-15 0.000000e+00  2.910000e-02 6.471821e-15 0.000000e+00  2.910000e-02 6.128951e-15 0.000000e+00  2.910000e-02 5.735910e-15 0.000000e+00  2.910000e-02 5.327422e-15 0.000000e+00  2.910000e-02 4.938441e-15 0.000000e+00  2.910000e-02 4.572049e-15 0.000000e+00  2.910000e-02 4.227615e-15 0.000000e+00  2.910000e-02 3.868440e-15 0.000000e+00  2.910000e-02 3.515889e-15 0.000000e+00  2.910000e-02 3.160577e-15 0.000000e+00  2.910000e-02 2.870091e-15 0.000000e+00  2.910000e-02 2.674226e-15 0.000000e+00  2.910000e-02 2.432372e-15 0.000000e+00  2.910000e-02 2.167501e-15 0.000000e+00  2.910000e-02 1.935264e-15 0.000000e+00  2.910000e-02 1.739962e-15 0.000000e+00  2.910000e-02 1.558655e-15 0.000000e+00  2.910000e-02 1.398041e-15 0.000000e+00  2.910000e-02 1.246557e-15 0.000000e+00  2.910000e-02 1.068826e-15 0.000000e+00  2.910000e-02 9.437629e-16 0.000000e+00  2.910000e-02 8.480353e-16 0.000000e+00  2.910000e-02 7.350743e-16 0.000000e+00  2.910000e-02 6.195872e-16 0.000000e+00  2.910000e-02 5.624461e-16 0.000000e+00  2.910000e-02 5.231173e-16 0.000000e+00  2.910000e-02 4.818574e-16 0.000000e+00  2.910000e-02 4.316983e-16 0.000000e+00  2.910000e-02 3.766616e-16 0.000000e+00  2.910000e-02 0.000000e+00 0.000000e+00  2.910000e-02 0.000000e+00 0.000000e+00  2.910000e-02 0.000000e+00 0.000000e+00  2.910000e-02 0.000000e+00 0.000000e+00  2.910000e-02 0.000000e+00 0.000000e+00  2.910000e-02 0.000000e+00 0.000000e+00  2.910000e-02 0.000000e+00 0.000000e+00  2.910000e-02 0.000000e+00 0.000000e+00  2.910000e-02 0.000000e+00 0.000000e+00  2.910000e-02 0.000000e+00 0.000000e+00  2.910000e-02 0.000000e+00 0.000000e+00  2.910000e-02 0.000000e+00 0.000000e+00  2.910000e-02 0.000000e+00 0.000000e+00  2.910000e-02 0.000000e+00 0.000000e+00  2.910000e-02 0.000000e+00 0.000000e+00  2.910000e-02 0.000000e+00 0.000000e+00  2.910000e-02 0.000000e+00 0.000000e+00  2.910000e-02 0.000000e+00 0.000000e+00  2.910000e-02 0.000000e+00 0.000000e+00  2.910000e-02 0.000000e+00 0.000000e+00  2.910000e-02 0.000000e+00 0.000000e+00  2.910000e-02 0.000000e+00 0.000000e+00  2.910000e-02 0.000000e+00 0.000000e+00  2.910000e-02 0.000000e+00 0.000000e+00  2.910000e-02 0.000000e+00 0.000000e+00  2.910000e-02 0.000000e+00 0.000000e+00  2.910000e-02 0.000000e+00 0.000000e+00  2.910000e-02 0.000000e+00 0.000000e+00  2.910000e-02 0.000000e+00 0.000000e+00  2.910000e-02 0.000000e+00 0.000000e+00  2.910000e-02 0.000000e+00 0.000000e+00  2.910000e-02 0.000000e+00 0.000000e+00  2.910000e-02 0.000000e+00 0.000000e+00  2.910000e-02 0.000000e+00 0.000000e+00  2.910000e-02 0.000000e+00 0.000000e+00  2.910000e-02 0.000000e+00 0.000000e+00  2.910000e-02 0.000000e+00 0.000000e+00  2.910000e-02 0.000000e+00 0.000000e+00  2.910000e-02 0.000000e+00 0.000000e+00  2.910000e-02 0.000000e+00 0.000000e+00  2.910000e-02 0.000000e+00 0.000000e+00  2.910000e-02 -3.024352e-16 0.000000e+00  2.910000e-02 -3.363517e-16 0.000000e+00  2.910000e-02 -3.839750e-16 0.000000e+00  2.910000e-02 -4.329136e-16 0.000000e+00  2.910000e-02 -4.894128e-16 0.000000e+00  2.910000e-02 -5.386170e-16 0.000000e+00  2.910000e-02 -5.607005e-16 0.000000e+00  3.840000e-02 0.000000e+00 0.000000e+00  3.840000e-02 3.566427e-15 0.000000e+00  3.840000e-02 6.666563e-15 0.000000e+00  3.840000e-02 9.215386e-15 0.000000e+00  3.840000e-02 1.123974e-14 0.000000e+00  3.840000e-02 1.277780e-14 0.000000e+00  3.840000e-02 1.395423e-14 0.000000e+00  3.840000e-02 1.480421e-14 0.000000e+00  3.840000e-02 1.538843e-14 0.000000e+00  3.840000e-02 1.573940e-14 0.000000e+00  3.840000e-02 1.595616e-14 0.000000e+00  3.840000e-02 1.602033e-14 0.000000e+00  3.840000e-02 1.592680e-14 0.000000e+00  3.840000e-02 1.563856e-14 0.000000e+00  3.840000e-02 1.549094e-14 0.000000e+00  3.840000e-02 1.530877e-14 0.000000e+00  3.840000e-02 1.503899e-14 0.000000e+00  3.840000e-02 1.468163e-14 0.000000e+00  3.840000e-02 1.430629e-14 0.000000e+00  3.840000e-02 1.389748e-14 0.000000e+00  3.840000e-02 1.344506e-14 0.000000e+00  3.840000e-02 1.292009e-14 0.000000e+00  3.840000e-02 1.236815e-14 0.000000e+00  3.840000e-02 1.180646e-14 0.000000e+00  3.840000e-02 1.118255e-14 0.000000e+00  3.840000e-02 1.054040e-14 0.000000e+00  3.840000e-02 9.881656e-15 0.000000e+00  3.840000e-02 9.199134e-15 0.000000e+00  3.840000e-02 8.552637e-15 0.000000e+00  3.840000e-02 7.922669e-15 0.000000e+00  3.840000e-02 7.296139e-15 0.000000e+00  3.840000e-02 6.669388e-15 0.000000e+00  3.840000e-02 6.069719e-15 0.000000e+00  3.840000e-02 5.512669e-15 0.000000e+00  3.840000e-02 5.050067e-15 0.000000e+00  3.840000e-02 4.667964e-15 0.000000e+00  3.840000e-02 4.233337e-15 0.000000e+00  3.840000e-02 3.774354e-15 0.000000e+00  3.840000e-02 3.373369e-15 0.000000e+00  3.840000e-02 3.026089e-15 0.000000e+00  3.840000e-02 2.711917e-15 0.000000e+00  3.840000e-02 2.421593e-15 0.000000e+00  3.840000e-02 2.173146e-15 0.000000e+00  3.840000e-02 1.913619e-15 0.000000e+00  3.840000e-02 1.673732e-15 0.000000e+00  3.840000e-02 1.499862e-15 0.000000e+00  3.840000e-02 1.283682e-15 0.000000e+00  3.840000e-02 1.078924e-15 0.000000e+00  3.840000e-02 9.639366e-16 0.000000e+00  3.840000e-02 8.888936e-16 0.000000e+00  3.840000e-02 8.189440e-16 0.000000e+00  3.840000e-02 7.464121e-16 0.000000e+00  3.840000e-02 6.744670e-16 0.000000e+00  3.840000e-02 5.664053e-16 0.000000e+00  3.840000e-02 3.705959e-16 0.000000e+00  3.840000e-02 0.000000e+00 0.000000e+00  3.840000e-02 0.000000e+00 0.000000e+00  3.840000e-02 0.000000e+00 0.000000e+00  3.840000e-02 0.000000e+00 0.000000e+00  3.840000e-02 0.000000e+00 0.000000e+00  3.840000e-02 0.000000e+00 0.000000e+00  3.840000e-02 0.000000e+00 0.000000e+00  3.840000e-02 0.000000e+00 0.000000e+00  3.840000e-02 0.000000e+00 0.000000e+00  3.840000e-02 0.000000e+00 0.000000e+00  3.840000e-02 0.000000e+00 0.000000e+00  3.840000e-02 0.000000e+00 0.000000e+00  3.840000e-02 0.000000e+00 0.000000e+00  3.840000e-02 0.000000e+00 0.000000e+00  3.840000e-02 0.000000e+00 0.000000e+00  3.840000e-02 0.000000e+00 0.000000e+00  3.840000e-02 0.000000e+00 0.000000e+00  3.840000e-02 0.000000e+00 0.000000e+00  3.840000e-02 0.000000e+00 0.000000e+00  3.840000e-02 0.000000e+00 0.000000e+00  3.840000e-02 0.000000e+00 0.000000e+00  3.840000e-02 0.000000e+00 0.000000e+00  3.840000e-02 0.000000e+00 0.000000e+00  3.840000e-02 0.000000e+00 0.000000e+00  3.840000e-02 -3.029541e-16 0.000000e+00  3.840000e-02 0.000000e+00 0.000000e+00  3.840000e-02 0.000000e+00 0.000000e+00  3.840000e-02 0.000000e+00 0.000000e+00  3.840000e-02 -3.072653e-16 0.000000e+00  3.840000e-02 -3.361133e-16 0.000000e+00  3.840000e-02 -3.752083e-16 0.000000e+00  3.840000e-02 -4.343570e-16 0.000000e+00  3.840000e-02 -4.678177e-16 0.000000e+00  3.840000e-02 -4.635726e-16 0.000000e+00  3.840000e-02 -4.284211e-16 0.000000e+00  3.840000e-02 -4.103598e-16 0.000000e+00  3.840000e-02 -3.876555e-16 0.000000e+00  3.840000e-02 -4.125750e-16 0.000000e+00